LAMMPS data file via write_data, version 12 Dec 2018, timestep = 100000

6720 atoms
3 atom types

1.0969638650692914e-01 5.6524302613492530e+01 xlo xhi
1.1083162616777287e-01 5.7109268373832833e+01 ylo yhi
1.1537780678959209e-01 5.9451822193210603e+01 zlo zhi

Masses

1 24.305
2 208.98
3 121.76

Atoms # atomic

71 1 1.4788108722802342e+00 3.8276030267518628e+00 3.5495753015135945e+00 0 0 0
1 1 3.6373756006435678e+00 2.0140032793491347e+00 1.3606158885482007e+00 0 0 0
4033 2 3.9053617104625049e+00 2.2594472874638876e+00 4.2699925029458603e+00 0 0 0
5 1 6.2364568063127006e+00 3.4603801859674963e+00 3.1976825474003987e+00 0 0 0
7 1 8.3674906165002430e+00 2.2148884779335956e+00 1.3191348102947027e+00 0 0 0
4037 2 8.6634557366445382e+00 2.0914691087192545e+00 4.3171610327224679e+00 0 0 0
11 1 1.1014726403211517e+01 3.7094295673826316e+00 3.3653183813380312e+00 0 0 0
13 1 1.3265994870396161e+01 1.9086072138555885e+00 1.3282687148521688e+00 0 0 0
4041 2 1.3238040553492292e+01 2.1165953759362925e+00 4.3294533546439231e+00 0 0 0
2 1 1.3326978928118953e+00 6.2297952672431984e+00 1.2757524734946066e+00 0 0 0
4034 2 1.2972839053544607e+00 6.4510233787509650e+00 4.3628816853736270e+00 0 0 0
578 1 1.5035546203231993e+00 1.4181419317614701e+01 8.5429945586328486e+00 0 0 0
8 1 5.9713013015224092e+00 6.0827864499239190e+00 1.2801786578435870e+00 0 0 0
4038 3 5.9201883073344250e+00 6.1778826548949777e+00 4.2785321796768327e+00 0 0 0
4042 2 1.0831499958140091e+01 6.4278885536525729e+00 4.3749442829266885e+00 0 0 0
14 1 1.0797057230494845e+01 6.4221261692446125e+00 1.3239821093879547e+00 0 0 0
73 1 3.5317398166863563e+00 1.0127456073270395e+01 1.0886026738336976e+00 0 0 0
4081 3 3.6174356760028528e+00 1.0287332875839985e+01 4.1636517502925328e+00 0 0 0
6 1 3.6821747462958645e+00 7.7680065701225738e+00 3.0947126648529246e+00 0 0 0
12 1 8.2081713108430741e+00 7.5479969139954441e+00 3.3766446385998838e+00 0 0 0
79 1 7.9272582750057650e+00 1.0173913654350498e+01 1.3616120293256631e+00 0 0 0
4085 3 8.1078408883001156e+00 1.0473249960205679e+01 4.2592448061176604e+00 0 0 0
18 1 1.3089125403545307e+01 7.7838501006741687e+00 3.0761541288902157e+00 0 0 0
85 1 1.2872001396512848e+01 1.0555946882561203e+01 1.2342075610689436e+00 0 0 0
4089 3 1.2952774394294678e+01 1.0377140153562431e+01 4.1355361068591447e+00 0 0 0
143 1 1.3177997869769855e+00 1.1612556956452357e+01 2.8785999456848979e+00 0 0 0
4035 3 1.4873606264921650e+00 3.3846027686301077e+00 3.0439323208085856e-01 0 0 0
77 1 5.7608451063454442e+00 1.1756856863880657e+01 3.0948485823882783e+00 0 0 0
586 1 8.6180621619826407e+00 1.2864597752449976e+01 6.0009345582673381e+00 0 0 0
4036 3 3.7515752899016577e+00 7.4229788817935578e+00 1.9131002263362740e-01 0 0 0
4427 3 1.0852148096515512e+01 1.1853234380985610e+01 7.7028054900635317e+00 0 0 0
83 1 1.0524685857518012e+01 1.1601775846329694e+01 3.1146178429914819e+00 0 0 0
4423 2 6.0918521416293130e+00 1.1408088444112886e+01 7.3299939857235383e+00 0 0 0
507 1 1.5010883991422705e+00 7.9254289428399205e-01 6.1245541148208238e+00 0 0 0
505 1 3.6052184295508902e+00 2.1103271965415731e+00 8.7308396102438213e+00 0 0 0
513 1 5.8071742696744373e+00 2.2835577618104225e-01 5.8084967103418776e+00 0 0 0
4375 2 6.0936413399014340e+00 3.7780911987599857e+00 7.6749102159321358e+00 0 0 0
511 1 8.2682020919622836e+00 2.1444090616797653e+00 8.7526279966975018e+00 0 0 0
519 1 1.1082906281566158e+01 1.1877905658105268e+00 6.1615996264993651e+00 0 0 0
4379 2 1.0595052928134720e+01 3.7261120971606423e+00 7.6537723054910654e+00 0 0 0
517 1 1.3010615413227528e+01 2.0074618528497745e+00 8.5829086105683228e+00 0 0 0
4371 3 1.4750249751050228e+00 3.6071598132581313e+00 7.6804340304809271e+00 0 0 0
506 1 1.0641875485720234e+00 6.2618002348327373e+00 8.6574641771812395e+00 0 0 0
508 1 3.6582821707589304e+00 4.7725673275275664e+00 6.1320536502282676e+00 0 0 0
512 1 5.8955932499941293e+00 6.3414125837716044e+00 8.8060539718896749e+00 0 0 0
514 1 8.4560189015405420e+00 5.0003172171693073e+00 5.9034696107102356e+00 0 0 0
518 1 1.0886529916466223e+01 6.2331726619846739e+00 8.6363427722553716e+00 0 0 0
520 1 1.3107020272346492e+01 4.8884068332872070e+00 5.8478637479698712e+00 0 0 0
579 1 1.5726257187120110e+00 9.1262762249490379e+00 5.6534104259623934e+00 0 0 0
577 1 4.0610808460055292e+00 9.9206503077099253e+00 8.8523271174370048e+00 0 0 0
4372 3 3.5261558520868785e+00 7.4374722604863468e+00 7.5513532020840968e+00 0 0 0
585 1 5.5841985149740001e+00 8.5809947971645180e+00 5.9248454898108864e+00 0 0 0
4376 2 8.1866176893766607e+00 7.5474130101200387e+00 7.5109465150666397e+00 0 0 0
583 1 8.5869189369725678e+00 1.0196833514955291e+01 8.3330177313488125e+00 0 0 0
591 1 1.0595651734302560e+01 9.1751553691196985e+00 5.7502776245333846e+00 0 0 0
589 1 1.3063528722091879e+01 1.0237522668834329e+01 8.5649147430816353e+00 0 0 0
4380 2 1.3213799605032433e+01 7.3760411650252884e+00 7.4295490036860832e+00 0 0 0
592 1 1.2955963888999728e+01 1.2886894890760326e+01 5.8154874412883464e+00 0 0 0
4419 2 1.5970780240725191e+00 1.1233283724292946e+01 7.8245339699511067e+00 0 0 0
580 1 3.7241212467690499e+00 1.2918537920547221e+01 5.9794021156005597e+00 0 0 0
4082 2 1.4940839278907223e+00 1.4049790728220149e+01 4.2757204475819943e+00 0 0 0
584 1 5.8584662270819470e+00 1.4194150556219359e+01 8.7986809144857769e+00 0 0 0
4040 2 8.2676285725156031e+00 7.6305141230305020e+00 2.3659651688548394e-01 0 0 0
4091 3 1.0441123907954802e+01 1.1617781871101512e+01 1.9862494055117302e-01 0 0 0
4086 2 6.1488974017573348e+00 1.4219332758231278e+01 4.4447496003834175e+00 0 0 0
4043 2 1.0872869057840752e+01 3.5312276169236427e+00 2.7095939442510120e-01 0 0 0
80 1 6.0835324533953967e+00 1.4244269456669175e+01 1.3068018276502411e+00 0 0 0
86 1 1.1037818134956433e+01 1.4185011874401431e+01 9.2888507755684757e-01 0 0 0
4090 2 1.0627628732045903e+01 1.4316187816504817e+01 4.1049713708931161e+00 0 0 0
1082 1 1.8131159224681315e+00 1.4131380397084950e+01 1.6322571522042178e+01 0 0 0
575 1 1.1813904570085554e+00 3.5517079432728207e+00 1.0755311200922801e+01 0 0 0
4369 3 3.7790659320854507e+00 2.4674326844897996e+00 1.1651598203952053e+01 0 0 0
1017 1 5.9527960618884013e+00 9.7050498842724442e-01 1.3160892334294225e+01 0 0 0
509 1 6.2783091775126332e+00 3.5521737507791449e+00 1.0755382013841963e+01 0 0 0
4373 2 8.6036200644464884e+00 2.1848931790455866e+00 1.1979419161991393e+01 0 0 0
4715 3 1.0948950494968981e+01 3.4961359364252167e+00 1.4923726015336975e+01 0 0 0
1023 1 1.1456399959260780e+01 7.0742811738725309e-01 1.3209806900938784e+01 0 0 0
515 1 1.0813988214553376e+01 3.5886286970142791e+00 1.0828901197738068e+01 0 0 0
4377 3 1.3169015470465721e+01 2.0081558697600421e+00 1.1498711675801713e+01 0 0 0
4707 2 1.2846533647324376e+00 3.4992362984356040e+00 1.5095963395194326e+01 0 0 0
4370 3 1.1079457565955910e+00 6.3087051025735512e+00 1.1856461100855579e+01 0 0 0
4711 3 5.9029859353190393e+00 3.5376433240099496e+00 1.5018427987854837e+01 0 0 0
1012 1 3.5877615341045983e+00 4.8477305107187059e+00 1.3382504968844227e+01 0 0 0
4374 3 6.0118833893893511e+00 6.3536067110064138e+00 1.1769268601778192e+01 0 0 0
1018 1 8.1738044647870414e+00 4.7667241742915145e+00 1.3491120867745618e+01 0 0 0
4378 2 1.0652641971840874e+01 6.3772016961464422e+00 1.1656276846689623e+01 0 0 0
1024 1 1.2840492423854052e+01 4.6587829349171752e+00 1.3109701785001091e+01 0 0 0
1083 1 1.4830082713113590e+00 8.9201685683595535e+00 1.3257657024506825e+01 0 0 0
4417 2 3.8238520055364345e+00 1.0113543740194572e+01 1.1744963479971410e+01 0 0 0
510 1 3.4439735955138717e+00 7.2423108610133777e+00 1.0540658360248425e+01 0 0 0
4708 2 3.5988375768448706e+00 7.4611393065567926e+00 1.5111998203681516e+01 0 0 0
1089 1 6.6810947583915556e+00 8.6319377376773723e+00 1.3372671982058693e+01 0 0 0
516 1 8.3812208846847813e+00 7.7210993422356227e+00 1.0341860965869937e+01 0 0 0
4421 3 8.5582612575432666e+00 1.0470133673521167e+01 1.1490508780240379e+01 0 0 0
4712 3 8.6582854115669736e+00 7.2576802238072764e+00 1.4845003651049158e+01 0 0 0
1095 1 1.1080627757234453e+01 8.9368018384837296e+00 1.3357477907299160e+01 0 0 0
522 1 1.3037178567757628e+01 7.5324521499875008e+00 1.0561258896251406e+01 0 0 0
4425 3 1.3245262332503298e+01 1.0117107454152578e+01 1.1667654089263072e+01 0 0 0
4716 3 1.3277424014225238e+01 7.4942724192412609e+00 1.5136606009902010e+01 0 0 0
647 1 1.4332961541731708e+00 1.1709600143067489e+01 1.0611714034451476e+01 0 0 0
1084 1 3.5941268199873715e+00 1.2743611994373545e+01 1.3536781273671343e+01 0 0 0
4755 3 1.6552599107763590e+00 1.1537658826463703e+01 1.5220427953083304e+01 0 0 0
1091 1 1.0905902062987494e+01 1.1586293690015895e+01 1.8099420501259704e+01 0 0 0
581 1 6.1819519377633778e+00 1.1809368717920576e+01 1.0619699201297445e+01 0 0 0
4759 3 6.2590596616859475e+00 1.1352871538411518e+01 1.4943600852430707e+01 0 0 0
1090 1 8.3882600709056927e+00 1.2772191881401543e+01 1.3368997553152946e+01 0 0 0
587 1 1.1064254970413915e+01 1.1525822880730585e+01 1.0511887705125289e+01 0 0 0
4763 3 1.0834052092475849e+01 1.1711778283717379e+01 1.5126550456076366e+01 0 0 0
1096 1 1.3316518335791843e+01 1.2845546052295896e+01 1.3222597149748315e+01 0 0 0
4705 2 3.6333794126101022e+00 2.2427525981679746e+00 1.9195414208136697e+01 0 0 0
1009 1 3.6876519660031706e+00 2.1334744951552342e+00 1.6061453031394159e+01 0 0 0
1013 1 5.8728987764182143e+00 3.5672162149959972e+00 1.7987995069538574e+01 0 0 0
1015 1 8.4858836091133476e+00 2.4016489850866671e+00 1.5832139950663233e+01 0 0 0
4709 2 8.1928337149799617e+00 2.4097496485420984e+00 1.8953544737466569e+01 0 0 0
1021 1 1.3138172131385195e+01 1.8371245005995187e+00 1.5879646125772751e+01 0 0 0
4713 3 1.3349547492879310e+01 1.8763928242056167e+00 1.8990319763337450e+01 0 0 0
1019 1 1.0901583926279894e+01 3.3609817688567123e+00 1.8043221818606384e+01 0 0 0
1079 1 1.4309162776431468e+00 3.7112837584753331e+00 1.8081499866214944e+01 0 0 0
1010 1 1.1488160817357704e+00 6.5257453343999927e+00 1.6213938939015087e+01 0 0 0
4706 2 1.1068098427732505e+00 6.4188128733646410e+00 1.9238963532833004e+01 0 0 0
4710 3 5.8825217869211048e+00 6.1290195374812146e+00 1.9194963135523114e+01 0 0 0
1016 1 6.0978004744924128e+00 6.4200102185018171e+00 1.6131410666715741e+01 0 0 0
1022 1 1.1032375889439587e+01 6.0971619171780391e+00 1.6026015808121585e+01 0 0 0
4714 3 1.0722652651142765e+01 6.1283576634518315e+00 1.9135664864650014e+01 0 0 0
1081 1 3.9308883178374039e+00 1.0179063570020540e+01 1.5829089614628799e+01 0 0 0
1014 1 3.5325669612750303e+00 7.4972482660332380e+00 1.8125371391049910e+01 0 0 0
4753 3 3.9439626799638807e+00 1.0106878684929892e+01 1.9034259654452075e+01 0 0 0
1020 1 8.3742016404687973e+00 7.2767849008678080e+00 1.8040932563419439e+01 0 0 0
1087 1 8.6014280479645215e+00 1.0060235653589412e+01 1.6150152686700746e+01 0 0 0
4757 3 8.4591984637942428e+00 1.0072523433320899e+01 1.9039423652054516e+01 0 0 0
1026 1 1.2769929915371065e+01 7.6987901642035146e+00 1.7974863482064166e+01 0 0 0
1093 1 1.3182218183320206e+01 1.0305384842836215e+01 1.6141070371453733e+01 0 0 0
4761 2 1.3257303576598328e+01 1.0223904540837365e+01 1.9362836393854089e+01 0 0 0
1151 1 1.7229148321388641e+00 1.1569168836964776e+01 1.8087777648243186e+01 0 0 0
1011 1 1.6632933301989623e+00 6.5520876529679084e-01 1.3692769036766514e+01 0 0 0
1085 1 6.1528889457843423e+00 1.1536050380905323e+01 1.7925351666751428e+01 0 0 0
4426 2 1.0820773818435608e+01 1.4259083489011187e+01 1.1544933652987059e+01 0 0 0
4762 2 1.0455130119074301e+01 1.4298978717416235e+01 1.9222166159287006e+01 0 0 0
4418 3 1.3730362061335952e+00 1.4152694855249319e+01 1.1594414051995901e+01 0 0 0
4758 3 6.1618439774525982e+00 1.4128332125108136e+01 1.8866484358966442e+01 0 0 0
1088 1 6.2661008627829915e+00 1.3898296162097752e+01 1.5841490419102859e+01 0 0 0
1515 1 1.4686162835104626e+00 1.0783349486354643e+00 2.0974585932523190e+01 0 0 0
5043 3 1.4011907542606876e+00 3.7463515834089809e+00 2.2330871622182674e+01 0 0 0
1513 1 3.6405855675278604e+00 2.2619052921211629e+00 2.3536681742342243e+01 0 0 0
1521 1 6.0107524191221300e+00 9.1485707852124243e-01 2.0954562917849547e+01 0 0 0
5047 2 6.0581325076417052e+00 3.5927321469719722e+00 2.2380374045176836e+01 0 0 0
1519 1 8.4599287171379718e+00 2.1509286275779638e+00 2.3377541003392047e+01 0 0 0
5051 2 1.0899985973079653e+01 3.3661129918350623e+00 2.2397484367210229e+01 0 0 0
1527 1 1.0719043208786255e+01 4.4448061043851977e-01 2.0438496579244838e+01 0 0 0
1525 1 1.3064748812922719e+01 1.9745057490979518e+00 2.3533909275759999e+01 0 0 0
1514 1 1.2746237546131036e+00 6.4656165053227079e+00 2.3526825958395520e+01 0 0 0
1516 1 3.5320323368776392e+00 5.0588079660638332e+00 2.0935379537399850e+01 0 0 0
1520 1 5.9607677299246253e+00 6.4684778217654690e+00 2.3577642182257783e+01 0 0 0
1522 1 8.3201707330583687e+00 4.8885532701322791e+00 2.0884667197764841e+01 0 0 0
1526 1 1.0660178280436067e+01 6.0346901464167804e+00 2.3341187773450091e+01 0 0 0
1528 1 1.3147148246531032e+01 4.7159562204618455e+00 2.0451334061194892e+01 0 0 0
1587 1 1.5549763446339995e+00 9.3180331363513957e+00 2.0830278663378348e+01 0 0 0
1585 1 3.8283139737919378e+00 1.0348046361787860e+01 2.3369894901259450e+01 0 0 0
5044 3 3.5743449610879798e+00 7.7563576128702367e+00 2.2363708967621267e+01 0 0 0
1593 1 6.3252625623481915e+00 9.0521310887078847e+00 2.0767482769780699e+01 0 0 0
5048 2 8.4596076133947449e+00 7.7023239384930466e+00 2.2320721371996132e+01 0 0 0
1591 1 8.6565254533829865e+00 1.0435143406963155e+01 2.3464870634019906e+01 0 0 0
1599 1 1.0558500574259645e+01 9.0870564803760718e+00 2.0912088951612251e+01 0 0 0
5052 2 1.2953641693604695e+01 7.3276256052349122e+00 2.2284174381915491e+01 0 0 0
1597 1 1.3128764672245554e+01 1.0037471153011353e+01 2.3510951031151624e+01 0 0 0
5091 2 1.4617165303329178e+00 1.1898307280747099e+01 2.2383503508321475e+01 0 0 0
5094 3 6.2867666342934587e+00 1.4212332146014205e+01 2.6350433093052693e+01 0 0 0
1588 1 4.1880001415364658e+00 1.3168320547287617e+01 2.0692358352716845e+01 0 0 0
5095 3 6.3042537774530754e+00 1.1553553518564918e+01 2.2324176218574063e+01 0 0 0
5435 3 1.0995466814874797e+01 1.1715699798697978e+01 2.9695011122541711e+01 0 0 0
1594 1 8.2016469961335208e+00 1.2602313131922134e+01 2.0451760855785388e+01 0 0 0
5099 2 1.1050155219420837e+01 1.1724812754866184e+01 2.2497537217013313e+01 0 0 0
1600 1 1.3135708361092769e+01 1.3278701696970833e+01 2.0823680230705143e+01 0 0 0
2019 1 1.0542566104199025e+00 1.2834190427626513e+00 2.8383772600947200e+01 0 0 0
1583 1 1.4136696542784877e+00 3.5355992631690527e+00 2.5416540084887256e+01 0 0 0
5388 3 1.2878254135810556e+01 7.6282674782561104e+00 2.9715528394177976e+01 0 0 0
5041 2 3.6475530326192263e+00 2.1648840264022624e+00 2.6402737762123753e+01 0 0 0
2025 1 6.2467715965586299e+00 7.8863713907982291e-01 2.8068851184743668e+01 0 0 0
1517 1 6.2641878334896290e+00 3.6834612399151854e+00 2.5423634470443471e+01 0 0 0
1595 1 1.0830699107878754e+01 1.1924137465153445e+01 2.5522632670662077e+01 0 0 0
5045 3 8.5789811207413198e+00 2.0131477928370289e+00 2.6258167115129304e+01 0 0 0
1523 1 1.0983870312545898e+01 3.3309024430102050e+00 2.5298397260471035e+01 0 0 0
2031 1 1.0585492971233187e+01 6.7336697105281618e-01 2.7824436431008007e+01 0 0 0
5049 3 1.3203157187097172e+01 1.8717796791961812e+00 2.6442107836177946e+01 0 0 0
2098 1 8.3472810354982077e+00 1.2963624055456693e+01 2.8115653535183206e+01 0 0 0
5042 3 1.2101148088658289e+00 6.2024008955774530e+00 2.6427812114834090e+01 0 0 0
2020 1 3.7826405982225588e+00 5.0731813018355005e+00 2.7921441933994039e+01 0 0 0
5046 2 6.1923702354180623e+00 6.3380037797007160e+00 2.6577089582673942e+01 0 0 0
2026 1 8.3202882139406800e+00 4.7010560367307486e+00 2.8079524095835740e+01 0 0 0
5050 3 1.0684722011762556e+01 6.1846384916193298e+00 2.6489075529393286e+01 0 0 0
2032 1 1.3158421748082603e+01 4.8081506439778154e+00 2.7893967636992048e+01 0 0 0
2091 1 1.5604433922276557e+00 8.7409728612431614e+00 2.8042957796962384e+01 0 0 0
2104 1 1.3165122663563269e+01 1.2601731649130622e+01 2.7839058658461788e+01 0 0 0
5089 2 3.9114752171694676e+00 1.0326952598839165e+01 2.6474810031353954e+01 0 0 0
1518 1 3.4964692833151414e+00 7.5913365025558699e+00 2.5450261886410903e+01 0 0 0
2097 1 5.9071112148036189e+00 9.3368110739294785e+00 2.8272865183500237e+01 0 0 0
1524 1 8.4234351975910293e+00 7.7578842762192410e+00 2.5286101374160690e+01 0 0 0
5093 3 8.6531381097964086e+00 1.0305439843726813e+01 2.6565709203961415e+01 0 0 0
5384 2 8.1723838545336296e+00 7.6662708359651992e+00 2.9546691358635229e+01 0 0 0
2103 1 1.0858274747601730e+01 8.8991750278264288e+00 2.8123242148773954e+01 0 0 0
1530 1 1.2979042617132558e+01 7.3828412983838518e+00 2.5232391621999565e+01 0 0 0
5097 3 1.3126604615595381e+01 1.0138961488573981e+01 2.6369576144391885e+01 0 0 0
1655 1 1.4232094324962321e+00 1.1756639708284323e+01 2.5467898984465663e+01 0 0 0
5387 2 1.0552902423886604e+01 3.4071010995238225e+00 2.9604474998079706e+01 0 0 0
5427 2 1.1928778451440107e+00 1.1763142921115790e+01 2.9649155503270389e+01 0 0 0
1592 1 6.1342891316506538e+00 1.4245132084563798e+01 2.3361335634123051e+01 0 0 0
2092 1 3.4937558992082054e+00 1.3350475312695705e+01 2.8270169666400246e+01 0 0 0
1589 1 6.3209715541789819e+00 1.1568148803488484e+01 2.5556195183208136e+01 0 0 0
5431 3 5.8917344977503703e+00 1.1955191344237381e+01 2.9718532523272671e+01 0 0 0
2087 1 1.3931707822167134e+00 3.1903831403268730e+00 3.2626165749702210e+01 0 0 0
5377 3 3.8396507638800252e+00 2.2808815902707424e+00 3.3653035833711769e+01 0 0 0
2017 1 3.7586131423165430e+00 2.3429576993626449e+00 3.0544219207331111e+01 0 0 0
2021 1 6.2354146260630818e+00 3.7768594393256807e+00 3.2916109764010216e+01 0 0 0
2023 1 8.2582038684598889e+00 2.2247042606608405e+00 3.0985923161373268e+01 0 0 0
5381 2 8.2752422036185198e+00 2.2437283855224761e+00 3.4084086413713521e+01 0 0 0
2029 1 1.2979455423141641e+01 2.2182112438094639e+00 3.0729684494624429e+01 0 0 0
5385 3 1.2752704357688057e+01 2.1269992413360921e+00 3.3828944203503951e+01 0 0 0
2018 1 1.3018123226297402e+00 6.5007705215198870e+00 3.0704230262323843e+01 0 0 0
5378 2 1.2753552275800424e+00 6.0816139309969781e+00 3.3841423274623054e+01 0 0 0
2024 1 5.8082417256669991e+00 6.4734195643896131e+00 3.0990107567007371e+01 0 0 0
5382 3 5.6916609828973774e+00 6.4322057817660756e+00 3.3968364321174562e+01 0 0 0
2027 1 1.0638666460572013e+01 3.4973435031824129e+00 3.2706284768715832e+01 0 0 0
2030 1 1.0564296281597697e+01 6.2623590322768212e+00 3.0844439304379769e+01 0 0 0
5386 2 1.0412413557872853e+01 6.3327108502323011e+00 3.3853760657510080e+01 0 0 0
5425 3 3.8333529194713112e+00 1.0500023153218699e+01 3.3840045260968679e+01 0 0 0
2089 1 3.6241746061450781e+00 1.0630972744936855e+01 3.0713910911346204e+01 0 0 0
2022 1 3.1334966911412461e+00 7.8498111286425765e+00 3.2720998362589967e+01 0 0 0
2028 1 8.0496067912884346e+00 7.7438993564991483e+00 3.2722039261338963e+01 0 0 0
2095 1 8.3270936413794043e+00 1.0617364106813522e+01 3.0552130352583838e+01 0 0 0
5429 2 8.3743925303382145e+00 1.0459275977427989e+01 3.3578058894707368e+01 0 0 0
2034 1 1.2975150600437344e+01 7.2013624026377210e+00 3.2679249703228237e+01 0 0 0
2101 1 1.3269756921001646e+01 1.0095144099413478e+01 3.0904690307511991e+01 0 0 0
5433 3 1.3116877196431899e+01 1.0067003801723546e+01 3.3710232992148875e+01 0 0 0
2608 1 1.2969192608594399e+01 1.2629684848313993e+01 3.5239816661606810e+01 0 0 0
2159 1 1.4091118622033585e+00 1.1705231322184892e+01 3.2836314526765662e+01 0 0 0
2602 1 8.0794716559407824e+00 1.2607879002971707e+01 3.5688211721162347e+01 0 0 0
5379 3 1.3047860626007091e+00 3.8147728572050448e+00 2.9877115654644090e+01 0 0 0
2093 1 6.0686111309636210e+00 1.1758796401328102e+01 3.2466192225972023e+01 0 0 0
5771 3 1.0732240727527188e+01 1.1347446160097334e+01 3.7208153388138726e+01 0 0 0
2099 1 1.0967331057513878e+01 1.1670609311873481e+01 3.2606027767950536e+01 0 0 0
2523 1 1.6947088217368547e+00 7.9154176745329552e-01 3.5315230203576348e+01 0 0 0
5715 3 1.4442549130177675e+00 3.3369978820525223e+00 3.7265397718570128e+01 0 0 0
2521 1 3.8461023319514656e+00 1.9875801167463185e+00 3.8316257858822780e+01 0 0 0
2529 1 5.9193348493749216e+00 7.3153124143254156e-01 3.5583762575671102e+01 0 0 0
5719 2 6.0463313752601877e+00 3.5249046294231725e+00 3.7143052871773108e+01 0 0 0
2527 1 8.4131710509310960e+00 2.1396790405268038e+00 3.8510724685285112e+01 0 0 0
5723 3 1.0660535165525943e+01 3.1992122978147526e+00 3.7101367322472299e+01 0 0 0
2535 1 1.0856411526295025e+01 4.4169137410454273e-01 3.5576269265400754e+01 0 0 0
2533 1 1.3111225946854224e+01 2.3491965384772073e+00 3.8342653082927839e+01 0 0 0
2522 1 1.3296616341481693e+00 6.0416902502235139e+00 3.8285456573307457e+01 0 0 0
2524 1 3.6011445667381650e+00 4.9378465853614451e+00 3.5404748717719286e+01 0 0 0
2528 1 6.1600822566011502e+00 6.1724775846719071e+00 3.8357403321144957e+01 0 0 0
2530 1 8.2323752395367791e+00 4.9865294280444630e+00 3.5557810879996737e+01 0 0 0
2534 1 1.0560956215390357e+01 6.1315057140836027e+00 3.8046561491747710e+01 0 0 0
2536 1 1.2847518693302742e+01 4.8868316428828180e+00 3.5507746703585283e+01 0 0 0
2595 1 1.4807975040617010e+00 9.1185188260550163e+00 3.5630961292023954e+01 0 0 0
2593 1 3.6256874986453171e+00 1.0140115022428153e+01 3.8324210812454098e+01 0 0 0
5716 2 3.5507452795296413e+00 7.4380998628762498e+00 3.7327785459978031e+01 0 0 0
2601 1 5.7641169168341495e+00 8.8860998298079075e+00 3.5517929947744349e+01 0 0 0
5720 2 8.3251960035724473e+00 7.5705422421306583e+00 3.7091070105838611e+01 0 0 0
2599 1 8.1938148503022461e+00 1.0068028715334671e+01 3.8371897590090455e+01 0 0 0
2607 1 1.0766849331886240e+01 9.1511204988982264e+00 3.5156786662596346e+01 0 0 0
2605 1 1.3280168433554016e+01 1.0292917209190279e+01 3.8047205514971225e+01 0 0 0
5724 2 1.3170280012567519e+01 7.4917066140745288e+00 3.6894727499924741e+01 0 0 0
5763 2 1.4585523462114576e+00 1.1732477412760149e+01 3.7198448729161925e+01 0 0 0
2596 1 3.7128632356248206e+00 1.3181404358862572e+01 3.5484504896523177e+01 0 0 0
5383 2 6.1811716058690065e+00 3.7418568327717221e+00 2.9894749090617999e+01 0 0 0
5767 2 5.8272226395016595e+00 1.1410288551158372e+01 3.7164438741047249e+01 0 0 0
2606 1 1.1070918139848914e+01 1.4040872520802328e+01 3.8063266805232715e+01 0 0 0
5380 3 3.5367813437554538e+00 7.6140812957679538e+00 2.9792842235286809e+01 0 0 0
3027 1 1.4181802977287219e+00 6.7328583743342241e-01 4.2890876092249883e+01 0 0 0
5713 2 3.8252970630437484e+00 1.8398752432423100e+00 4.1277184660298914e+01 0 0 0
3033 1 6.2755820775173534e+00 5.7496723319872522e-01 4.2965354404912205e+01 0 0 0
6055 2 6.0810659534936375e+00 3.4503076210016648e+00 4.4646489258940022e+01 0 0 0
2525 1 6.0345020101178761e+00 3.4480737025795691e+00 4.0241051821373176e+01 0 0 0
5717 3 8.5057509515395644e+00 2.4572215872631458e+00 4.1447425308024293e+01 0 0 0
3039 1 1.0499076176017814e+01 1.0089240873222525e+00 4.2955397054723406e+01 0 0 0
6059 3 1.0849585997512193e+01 3.4034559837901246e+00 4.4712210930086002e+01 0 0 0
2531 1 1.0725431136985636e+01 3.6327880755250654e+00 4.0003371660616608e+01 0 0 0
5721 3 1.3107578980688874e+01 2.5142663383036075e+00 4.1178872862333208e+01 0 0 0
2591 1 1.3654367660678273e+00 3.2294228559059563e+00 4.0213931578776382e+01 0 0 0
5714 3 1.2497313219346029e+00 5.9133702563475570e+00 4.1251803270809972e+01 0 0 0
3028 1 4.0187589158845380e+00 5.0339033905337534e+00 4.2745696956651031e+01 0 0 0
5718 3 6.1674922429003995e+00 6.3794805022121794e+00 4.1318811240952840e+01 0 0 0
3034 1 8.2285070456250686e+00 4.8035853892549873e+00 4.3060096100140399e+01 0 0 0
5722 3 1.0926341729015761e+01 6.2095615871830532e+00 4.1057303761445837e+01 0 0 0
3040 1 1.2886655831034760e+01 4.8019887477512784e+00 4.3048648853932860e+01 0 0 0
3099 1 1.1737109823831098e+00 8.5194511992950002e+00 4.3046508454589969e+01 0 0 0
6052 3 3.6776532639394421e+00 7.6633360456510884e+00 4.4654784586018067e+01 0 0 0
5761 2 3.6423503395454913e+00 1.0115783598763317e+01 4.1389300154716196e+01 0 0 0
2526 1 3.7481899872214806e+00 7.4649016442065266e+00 4.0286532082571412e+01 0 0 0
3105 1 5.9890387960146922e+00 8.8629189414091396e+00 4.3007342295150096e+01 0 0 0
2532 1 8.4283440240754111e+00 7.4273755699663919e+00 4.0116536350444434e+01 0 0 0
5765 2 8.3575921661158024e+00 1.0218425711916716e+01 4.1347028965411980e+01 0 0 0
6056 2 8.7088269487756733e+00 7.5306118092909049e+00 4.4362806616194135e+01 0 0 0
3111 1 1.0804927466340283e+01 8.7212398128013842e+00 4.2798388079406351e+01 0 0 0
2538 1 1.3320581638097158e+01 7.2045177170087369e+00 4.0072177571204136e+01 0 0 0
5769 2 1.3168269029504616e+01 1.0152487529177309e+01 4.1171098573363068e+01 0 0 0
6060 2 1.3159602290993712e+01 7.5516010680848629e+00 4.4318111998868773e+01 0 0 0
2663 1 1.4258529801832434e+00 1.1852652363097942e+01 4.0188557414630765e+01 0 0 0
6099 2 1.5083547928750174e+00 1.1751432673850005e+01 4.4219924420311983e+01 0 0 0
3100 1 3.8604187797871781e+00 1.3146875599055875e+01 4.3113855914782661e+01 0 0 0
2597 1 5.9273077155138987e+00 1.1622526336768900e+01 4.0249726746482793e+01 0 0 0
3106 1 8.2754780264062777e+00 1.2791518123096004e+01 4.2793892015501058e+01 0 0 0
2603 1 1.0810272966912803e+01 1.1245661523214100e+01 4.0186231949036980e+01 0 0 0
6107 3 1.0582939506818187e+01 1.1632798801921847e+01 4.4683569382384249e+01 0 0 0
3112 1 1.2936269688576836e+01 1.2784824890498335e+01 4.2679028134772011e+01 0 0 0
3107 1 1.0297483346832792e+01 1.1726740900407478e+01 4.7578774409716701e+01 0 0 0
6051 2 1.7628003556497438e+00 3.5896713318416413e+00 4.4425900246494393e+01 0 0 0
3095 1 1.3291687208013627e+00 3.6027510868653705e+00 4.7622105659437665e+01 0 0 0
3025 1 3.6406570486928347e+00 1.8052865514913354e+00 4.5708544880382249e+01 0 0 0
6049 2 3.7677483945848027e+00 2.2111350896244177e+00 4.8783546619771784e+01 0 0 0
3031 1 8.4619456912996061e+00 2.2077442328195098e+00 4.5810587272595271e+01 0 0 0
6053 2 8.3788023563595377e+00 2.2540074691139904e+00 4.8902828092927052e+01 0 0 0
3035 1 1.0698701830693162e+01 3.5515706098278601e+00 4.7480300757020999e+01 0 0 0
6057 2 1.2957029851704613e+01 2.4846839588088780e+00 4.8757867956830310e+01 0 0 0
3037 1 1.3164926409182211e+01 2.2059075240035808e+00 4.5687954056186157e+01 0 0 0
6050 3 1.5590330175167735e+00 6.3377957693202136e+00 4.8588940292116988e+01 0 0 0
3026 1 1.2992784904345587e+00 6.3252834406817682e+00 4.5634741348391032e+01 0 0 0
3029 1 6.0309552095076508e+00 3.7035021186486756e+00 4.7790980372359456e+01 0 0 0
3032 1 6.3011229244389098e+00 6.1683595912282119e+00 4.5345972320766819e+01 0 0 0
6054 3 6.1920409223762567e+00 6.4336567764689327e+00 4.8498082419906353e+01 0 0 0
6058 2 1.0931155330736535e+01 6.2309592313419779e+00 4.8753299069980159e+01 0 0 0
3038 1 1.0787748756854009e+01 6.2085724366468584e+00 4.5658225018097582e+01 0 0 0
3097 1 3.7249073332914397e+00 1.0349463403264167e+01 4.5428924140614441e+01 0 0 0
6097 2 3.5364638354009625e+00 1.0229633308824450e+01 4.8792387705486519e+01 0 0 0
3030 1 3.7507855758651405e+00 7.6459533428948721e+00 4.7528654300046796e+01 0 0 0
3036 1 8.6072703198028790e+00 7.6430867529168056e+00 4.7748134416903312e+01 0 0 0
3103 1 8.5481884908767523e+00 9.9643080795391743e+00 4.5645732016582855e+01 0 0 0
6101 3 8.1855597989991633e+00 1.0322595344011974e+01 4.8635477578940581e+01 0 0 0
3042 1 1.3343629344709129e+01 7.7521616330476162e+00 4.7382994576923267e+01 0 0 0
6105 2 1.2960014653158805e+01 1.0439043728664805e+01 4.8420067992785320e+01 0 0 0
3109 1 1.2822991568939656e+01 1.0202355234444605e+01 4.5456403686724755e+01 0 0 0
3167 1 1.5710670143411867e+00 1.1581046009147091e+01 4.7406320542338065e+01 0 0 0
5770 2 1.0814027579758413e+01 1.4163851866078700e+01 4.1053397833953341e+01 0 0 0
6103 2 6.1258343243304738e+00 1.1601050407843701e+01 4.4494052043490044e+01 0 0 0
3101 1 5.9780589434930596e+00 1.1740301776474277e+01 4.7618676863874086e+01 0 0 0
6098 3 1.3506037401800937e+00 1.4190377595239710e+01 4.8526906774292684e+01 0 0 0
6106 2 1.0890837228634997e+01 1.4303748893019709e+01 4.8448276278940781e+01 0 0 0
3098 1 1.3675251232114320e+00 1.4319652227960507e+01 4.5586077761026971e+01 0 0 0
3110 1 1.1024604587702665e+01 1.4322624850278068e+01 4.5572887800963414e+01 0 0 0
3531 1 1.2080340441177897e+00 9.7662181758823263e-01 5.0577568322396829e+01 0 0 0
6387 3 1.4837918624209769e+00 3.6894840949597705e+00 5.2051709928587172e+01 0 0 0
3529 1 3.7347307524568509e+00 2.5755228597712021e+00 5.3029595838035476e+01 0 0 0
3537 1 6.1178936882460624e+00 7.1384424003397384e-01 5.0477570141351151e+01 0 0 0
6391 3 6.0171249145799983e+00 3.9531416368819410e+00 5.2121547414796808e+01 0 0 0
3535 1 8.3545532783554126e+00 2.3772338701829971e+00 5.2996399428229765e+01 0 0 0
6395 2 1.0860931014158908e+01 3.5413903219219818e+00 5.2070231452621442e+01 0 0 0
3543 1 1.0984035933785501e+01 7.5071532611266234e-01 5.0493799893571008e+01 0 0 0
3541 1 1.3275402128817008e+01 2.1711941423379519e+00 5.3250240118687955e+01 0 0 0
3530 1 1.4298769242951648e+00 6.1886584552785200e+00 5.3242815147096906e+01 0 0 0
3532 1 3.8625077554677403e+00 4.8953393726587473e+00 5.0138411545503331e+01 0 0 0
3536 1 6.2351313802973412e+00 6.5866332113989730e+00 5.3054164945787235e+01 0 0 0
3538 1 8.5107485611003106e+00 5.0705291850225880e+00 5.0323529118560458e+01 0 0 0
3542 1 1.0854857128459656e+01 6.4894953963744859e+00 5.3192782411696854e+01 0 0 0
3544 1 1.3279415930407271e+01 5.2540876847863345e+00 5.0320510200317528e+01 0 0 0
3603 1 1.3171359644051550e+00 9.0103109751515049e+00 5.0624444337811980e+01 0 0 0
3601 1 3.6409059731961975e+00 1.0313123433377037e+01 5.2782722712211566e+01 0 0 0
6388 2 3.7252163344758955e+00 7.4475055964805970e+00 5.1622711769486131e+01 0 0 0
3609 1 5.8884466809607297e+00 8.9211114110126104e+00 5.0210584819571679e+01 0 0 0
6392 3 8.6321640317772736e+00 7.6319640733624095e+00 5.2077499608290964e+01 0 0 0
3607 1 8.4816804628009379e+00 1.0552826230931577e+01 5.2760334816708706e+01 0 0 0