LAMMPS (12 Dec 2018)
OMP_NUM_THREADS environment is not set. Defaulting to 1 thread. (../comm.cpp:87)
  using 1 OpenMP thread(s) per MPI task
#script for elastic constant
include init.mod

variable up equal 1.0e-6
variable atomjiggle equal 1.0e-5

units           metal
variable cfac equal 1.0e-4
variable cunits string GPa

# Define minimization parameters
variable etol equal 1.0e-15
variable ftol equal 1.0e-10
variable maxiter equal 400000
variable maxeval equal 400000
variable dmax equal 1.0e-2

atom_style atomic
boundary p p p
box tilt large

read_data       data.relax
  orthogonal box = (0.109696 0.110832 0.115378) to (56.5243 57.1093 59.4518)
  3 by 4 by 6 MPI processor grid
  reading atoms ...
  6720 atoms
  reading velocities ...
  6720 velocities
include potential.mod
#NOTE: This script can be modified for different pair styles
# See in.elastic for more info.

# Choose potential
pair_style  mlip mlip.ini
pair_coeff      * *

# Setup neighbor style
neighbor 1.0 nsq
neigh_modify once no every 1 delay 0 check yes

# Setup minimization style
min_style            cg
min_modify           dmax ${dmax} line quadratic
min_modify           dmax 0.01 line quadratic

# Setup output
thermo          20
thermo_style custom step temp pe press pxx pyy pzz pxy pxz pyz lx ly lz vol
thermo_modify norm no


# Compute initial state
fix 3 all box/relax  aniso 0.0
minimize ${etol} ${ftol} ${maxiter} ${maxeval}
minimize 1e-15 ${ftol} ${maxiter} ${maxeval}
minimize 1e-15 1e-10 ${maxiter} ${maxeval}
minimize 1e-15 1e-10 400000 ${maxeval}
minimize 1e-15 1e-10 400000 400000
Neighbor list info ...
  update every 1 steps, delay 0 steps, check yes
  max neighbors/atom: 2000, page size: 100000
  master list distance cutoff = 5.8
  ghost atom cutoff = 5.8
  1 neighbor lists, perpetual/occasional/extra = 1 0 0
  (1) pair mlip, perpetual
      attributes: full, newton on
      pair build: full/nsq
      stencil: none
      bin: none
Per MPI rank memory allocation (min/avg/max) = 3.805 | 3.828 | 4.181 Mbytes
Step Temp PotEng Press Pxx Pyy Pzz Pxy Pxz Pyz Lx Ly Lz Volume 
       0    299.61526   -19366.073    -365.7019    1868.1667    1404.6968   -4369.9692    61.001782    12.912762    -425.6185    56.414606    56.998437    59.336444    190798.97 
      20    299.61526   -19367.327    362.01016    2261.9009    1858.7124   -3034.5828    62.114555    11.056558   -414.42199    56.428128     57.00259    59.217771    190476.89 
      40    299.61526   -19368.326    927.28332    2455.6213    2120.6884   -1794.4598     63.06729    9.5905417   -403.04095    56.454757    57.018731    59.099099    190238.73 
      60    299.61526   -19369.107    1302.8566     2418.104    2161.2525   -670.78666    63.530181     8.995243   -391.71696    56.496436    57.048451    58.980426    190095.93 
      80    299.61526    -19369.67    1476.7007    2134.9974    1969.9959    325.10895    63.215923    9.3474159   -378.50911    56.554157    57.092209    58.861753    190052.93 
     100    299.61526   -19369.984    1480.2073    1639.6838     1587.946    1212.9922    62.539522    9.6871017   -362.83344    56.626329    57.147083     58.74308    190094.34 
     120    299.61526   -19371.376    1434.0397    1438.1054     1434.664    1429.3496    61.935846    10.208321   -356.14871     56.64999    57.163053     58.70802    190113.38 
     140    299.61526   -19372.072     1414.739    1419.9791    1416.5832    1407.6546    61.733915    10.461531   -356.10264    56.650141    57.163108     58.70802    190114.07 
     160    299.61526   -19372.693    1397.8189    1404.1431     1400.807    1388.5064    61.556118    10.686773   -356.05267    56.650257    57.163135     58.70802    190114.55 
     180    299.61526   -19373.393    1378.7485    1386.2818     1383.034    1366.9295    61.357954    10.941978   -355.97413    56.650388    57.163166     58.70802    190115.09 
     200    299.61526    -19377.19    1494.1562    1494.3525    1490.6508    1497.4653    60.624388    12.095187   -355.81297    56.641927    57.154115    58.696153    190018.18 
     220    299.61526   -19378.322    1462.9823    1465.1736    1461.6018    1462.1714    60.331272    12.519773   -355.69767    56.642157    57.154191    58.696153    190019.21 
     240    299.61526   -19388.124     1518.503    1517.1516    1513.4424    1524.9151    58.098929    15.852525   -354.87716    56.630576    57.141232    58.678405    189879.85 
     260    299.61526   -19388.698    1502.3427    1502.0439    1498.3713     1506.613    57.937958     16.07189   -354.80669    56.630713    57.141298    58.678405    189880.53 
     280    299.61526   -19389.415     1482.092    1483.1137    1479.4938    1483.6686    57.731052    16.336385   -354.72171    56.630886    57.141382    58.678405    189881.39 
     300    299.61526   -19390.996    1437.3223    1441.2495    1437.7611    1432.9563    57.271372    16.906955   -354.51826    56.631276    57.141575    58.678405    189883.34 
     320    299.61526   -19391.644    1419.0394    1424.1712    1420.7394    1412.2077    57.085523    17.142538   -354.43104    56.631433    57.141648    58.678405     189884.1 
     340    299.61526   -19392.205    1403.1295    1409.3013    1405.9161    1394.1711    56.924631     17.34804   -354.35466    56.631573    57.141716    58.678405     189884.8 
     360    299.61526     -19392.8    1386.2125    1393.4871    1390.1574    1374.9929    56.753668      17.5697   -354.27057    56.631724     57.14179    58.678405    189885.55 
     380    299.61526   -19393.773    1358.5499    1367.6181    1364.3947     1343.637    56.487173    17.929544   -354.12115    56.631974    57.141913    58.678405     189886.8 
     400    299.61526   -19395.042    1542.3191    1539.4329    1535.6529    1551.8714    56.493668    18.078688   -354.03415    56.623132     57.13284    58.666538    189788.62 
     420    299.61526   -19395.629    1525.5578    1523.7707    1520.0323    1532.8704    56.341785    18.290671   -353.95782    56.623285    57.132922    58.666538     189789.4 
     440    299.61526    -19396.17    1510.1066    1509.3336    1505.6316    1515.3545    56.201529    18.485999    -353.8779    56.623425    57.132999    58.666538    189790.13 
     460    299.61526   -19396.766    1493.0589    1493.4027    1489.7444    1496.0294    56.032087    18.709055   -353.79116    56.623581    57.133081    58.666538    189790.92 
     480    299.61526   -19399.012    1429.1445    1433.7495    1430.3058    1423.3783    55.401633    19.501761   -353.49292     56.62415     57.13337    58.666538    189793.79 
     500    299.61526   -19399.565     1412.879    1418.4816    1415.0724     1405.083    55.244796    19.694618   -353.42063    56.624327    57.133482    58.666538    189794.76 
     520    299.61526   -19400.104    1397.3719    1404.0005    1400.6348    1387.4804    55.091708    19.882068   -353.34812    56.624474    57.133563    58.666538    189795.52 
     540    299.61526   -19400.727    1379.4441    1387.2736    1383.9435    1367.1151    54.916398    20.098434   -353.26548    56.624642    57.133659    58.666538     189796.4 
     560    299.61526   -19413.605    1548.6332    1545.1604    1541.3326    1559.4065    52.107208    24.039274   -351.62211    56.605756    57.113184    58.637075    189569.85 
     580    299.61526   -19414.172    1532.5395    1530.2672    1526.5631    1540.7882     51.96758    24.227613   -351.52417    56.605888     57.11325    58.637075    189570.51 
     600    299.61526   -19414.663    1517.8884    1516.6067    1512.9277    1524.1306     51.85517    24.389662   -351.44914    56.606045    57.113362    58.637075    189571.41 
     620    299.61526   -19415.167    1502.8638    1502.5963    1498.9474    1507.0476    51.745384    24.552975    -351.3692    56.606206    57.113477    58.637075    189572.33 
     640    299.61526   -19415.805     1483.816    1484.8361    1481.2303    1485.3817    51.613583    24.759612   -351.26593    56.606413    57.113623    58.637075    189573.51 
     660    299.61526    -19417.18    1442.6541    1446.4654    1442.9648     1438.532    51.334774    25.192928   -351.04146     56.60686    57.113944    58.637075    189576.07 
     680    299.61526   -19417.771    1424.8713     1429.883     1426.417     1418.314    51.218619    25.374395   -350.94438    56.607059    57.114092    58.637075    189577.22 
     700    299.61526   -19418.262    1410.0893     1416.103    1412.6733    1401.4915    51.126653    25.517992   -350.86504    56.607223    57.114212    58.637075    189578.18 
     720    299.61526   -19418.756    1395.2145    1402.2382    1398.8351    1384.5701    51.031669    25.657746   -350.78762     56.60739    57.114335    58.637075    189579.14 
     740    299.61526   -19419.357    1377.0846    1385.3437    1381.9621     1363.948     50.91224     25.82507   -350.69381    56.607594    57.114488    58.637075    189580.34 
     760    299.61526   -19420.696    1558.9743    1555.3717    1551.5788    1569.9723    50.993091    26.151301   -350.52928     56.59881    57.105503    58.625208    189482.74 
     780    299.61526   -19421.309    1538.3079    1535.6745    1531.9226    1547.3266    50.851365     26.32528   -350.42529    56.599172    57.105812    58.625208    189484.98 
     800    299.61526   -19421.792    1523.6149    1521.9809    1518.2563    1530.6075    50.743135    26.461523   -350.34225    56.599343    57.105939    58.625208    189485.97 
     820    299.61526   -19422.264    1509.2954    1508.6359    1504.9423     1514.308    50.642327    26.591396   -350.25979     56.59951     57.10606    58.625208    189486.93 
     840    299.61526     -19422.8    1492.9829      1493.43    1489.7822    1495.7365    50.532253    26.734873   -350.16784    56.599702    57.106198    58.625208    189488.03 
     860    299.61526   -19424.011    1456.1637    1459.1103    1455.6084    1453.7725    50.293973    27.067796   -349.96736    56.600136    57.106505    58.625208     189490.5 
     880    299.61526   -19424.766    1433.0703    1437.5915    1434.1375    1427.4818    50.142828    27.271857   -349.84416    56.600412     57.10671    58.625208    189492.11 
     900    299.61526   -19425.264    1417.8043    1423.3494    1419.9485     1410.115    50.052127    27.402351   -349.76295    56.600599    57.106846    58.625208    189493.18 
     920    299.61526   -19425.729    1403.5995    1410.1082    1406.7617    1393.9287     49.97062     27.52612   -349.68866    56.600772    57.106968    58.625208    189494.17 
     940    299.61526   -19426.231    1388.2397    1395.7905    1392.5157    1376.4129    49.885595    27.659568    -349.6071    56.600959    57.107098    58.625208    189495.23 
     960    299.61526   -19426.997    1364.8057    1373.9449     1370.775    1349.6972    49.762282    27.855407    -349.4805    56.601247    57.107297    58.625208    189496.85 
     980    299.61526   -19428.338    1543.8658    1540.8741    1537.0504    1553.6729    49.879149    28.281641   -349.27289    56.592673    57.098501     58.61334    189400.62 
    1000    299.61526   -19428.822    1528.9528    1526.9685    1523.2077    1536.6821    49.797769    28.405944   -349.19021     56.59286    57.098636     58.61334    189401.69 
    1020    299.61526   -19429.272    1515.0788    1514.0383    1510.3252     1520.873    49.724203     28.51574   -349.11481    56.593034    57.098763     58.61334    189402.69 
    1040    299.61526   -19429.752    1500.2673    1500.2408    1496.5718    1503.9894    49.645569    28.631201   -349.03406    56.593219      57.0989     58.61334    189403.77 
    1060    299.61526   -19430.416    1479.7144     1481.094     1477.489      1480.56    49.536867    28.790441   -348.91824     56.59348    57.099093     58.61334    189405.28 
    1080    299.61526   -19431.655    1440.9224    1444.9318     1441.358    1436.4775    49.340823    29.096988   -348.71526     56.59399    57.099494     58.61334    189408.32 
    1100    299.61526    -19432.18    1424.9521     1430.089    1426.6586    1418.1087    49.261659    29.226586   -348.61097    56.594183     57.09962     58.61334    189409.38 
    1120    299.61526   -19432.631    1410.8679    1416.9763    1413.5898    1402.0377    49.191246    29.337892   -348.53046    56.594367    57.099758     58.61334    189410.45 
    1140    299.61526   -19433.087    1396.6401    1403.7425    1400.3855    1385.7923    49.123301    29.449545    -348.4496    56.594553    57.099899     58.61334    189411.54 
    1160    299.61526   -19433.633    1379.5964    1387.8939    1384.5532    1366.3421    49.051632     29.56809   -348.36268    56.594775     57.10007     58.61334    189412.86 
    1180    299.61526     -19434.9    1560.2736    1556.2126    1552.1705    1572.4376    49.165679    30.025027   -348.13155    56.586214    57.091353    58.601473    189316.95 
    1200    299.61526   -19435.493    1541.7061    1538.8035    1535.0764    1551.2386    49.082465    30.153973   -348.00179    56.586479    57.091521    58.601473     189318.4 
    1220    299.61526   -19435.948    1527.4536    1525.5527    1521.8512    1534.9568    49.018674    30.250599   -347.93013    56.586667    57.091669    58.601473    189319.52 
    1240    299.61526   -19436.381    1513.8598    1512.9047    1509.2369    1519.4378    48.958437    30.342161   -347.84299    56.586846    57.091812    58.601473    189320.59 
    1260    299.61526   -19436.851    1499.0821    1499.1521    1495.5274    1502.5668    48.891745    30.441576   -347.74175     56.58704    57.091968    58.601473    189321.76 
    1280    299.61526   -19437.541    1477.4058    1478.9785    1475.4006    1477.8384    48.795697    30.577557   -347.60245    56.587326      57.0922    58.601473    189323.48 
    1300    299.61526   -19438.746    1441.1374    1445.9783    1442.4046    1435.0294    48.652621    30.783336   -347.39147    56.587652    57.092445    58.601573    189325.71 
    1320    299.61526   -19439.225    1422.5774     1427.967    1424.4702    1415.2949    48.588719    30.863717   -347.28845    56.588101    57.092855    58.601573    189328.57 
    1340    299.61526   -19439.656    1408.9861    1415.3212    1411.8461    1399.7909    48.540681    30.930804   -347.19899    56.588281    57.093006    58.601573    189329.68 
    1360    299.61526   -19440.101    1394.9277    1402.2443    1398.7867    1383.7522    48.491783    30.996539   -347.10803    56.588469    57.093165    58.601573    189330.83 
    1380    299.61526   -19440.653    1377.4533    1385.9899    1382.5549    1363.8153    48.432583     31.07374   -346.99626    56.588705    57.093364    58.601573    189332.28 
    1400    299.61526   -19441.953    1554.5328    1550.2977    1546.5718    1566.7289    48.550318    31.487728   -346.73369    56.580364    57.084855    58.589706    189237.83 
    1420    299.61526   -19442.479    1540.0252    1537.2325    1533.5826    1549.2604    48.497691    31.566612   -346.61067    56.580442    57.084891    58.589706    189238.21 
    1440    299.61526   -19442.909    1526.3274    1524.4975    1520.8653    1533.6193    48.451788    31.631142   -346.51479    56.580629    57.085053    58.589706    189239.37 
    1460    299.61526   -19443.327     1513.004    1512.1122     1508.493    1518.4068    48.408999    31.690983   -346.42282    56.580812    57.085213    58.589706    189240.51 
    1480    299.61526   -19443.787    1498.3106    1498.4532    1494.8481    1501.6307    48.366582    31.753854   -346.32209    56.581015     57.08539    58.589706    189241.78 
    1500    299.61526     -19444.5    1475.4943    1477.2363    1473.6643    1475.5822    48.302389    31.850519   -346.15561    56.581335    57.085669    58.589706    189243.77 
    1520    299.61526   -19445.994    1427.5289    1432.6306    1429.1538    1420.8024    48.168393    32.036695   -345.77107    56.582015    57.086261    58.589706    189248.01 
    1540    299.61526   -19446.415    1413.9712    1420.0218    1416.5761    1405.3156    48.127973    32.084615   -345.66329    56.582209    57.086429    58.589706    189249.22 
    1560    299.61526   -19446.832    1400.5309    1407.5227    1404.1078    1389.9623    48.084663    32.145529   -345.56228    56.582403    57.086596    58.589706    189250.42 
    1580    299.61526   -19447.307    1385.2198    1393.2794    1389.8907    1372.4894    48.032065    32.230522   -345.45646    56.582626    57.086789    58.589706     189251.8 
    1600    299.61526   -19448.946    1324.6554    1335.5215    1331.9573    1306.4872    47.826842    32.529544   -345.14211    56.583915    57.088024    58.589706    189260.21 
    1620    299.61526     -19449.4    1538.1623    1535.5446    1531.8789    1547.0634    48.107135    32.734878    -344.9766    56.574576    57.078521    58.577838    189159.15 
    1640    299.61526    -19449.81    1524.8813    1523.1935    1519.5556    1531.8948    48.060844    32.805878   -344.88389    56.574772    57.078694    58.577838    189160.38 
    1660    299.61526   -19450.214    1511.7125    1510.9478     1507.335    1516.8547    48.016159    32.878761   -344.79395    56.574968    57.078868    58.577838    189161.61 
    1680    299.61526   -19450.669    1496.9113     1497.187     1493.595    1499.9518    47.966486     32.95841   -344.70015     56.57519    57.079065    58.577838    189163.01 
    1700    299.61526   -19451.479    1470.3956    1472.5299    1468.9622    1469.6948    47.881692    33.090569   -344.54144    56.575592    57.079426    58.577838    189165.55 
    1720    299.61526   -19452.911    1423.4658    1428.9248    1425.4074    1416.0653    47.737175    33.309933   -344.26146    56.576308    57.080067    58.577838    189170.07 
    1740    299.61526   -19453.311    1410.2952    1416.6884     1413.178    1401.0191    47.697993    33.369778   -344.18266    56.576512    57.080251    58.577838    189171.36 
    1760    299.61526   -19453.722    1396.7022    1404.0617    1400.5586    1385.4862    47.655249    33.431045   -344.10125    56.576724    57.080443    58.577838     189172.7 
    1780    299.61526    -19454.22    1380.2231    1388.7463    1385.2631    1366.6598    47.603359    33.506595   -343.98892    56.576983    57.080677    58.577838    189174.35 
    1800    299.61526   -19455.433    1558.6776    1554.1921    1550.4788    1571.3621    47.746167    33.838597    -343.6743    56.568735     57.07229    58.565971    189080.66 
    1820    299.61526   -19455.949    1543.5464    1540.5202    1536.8809     1553.238    47.703272    33.912716   -343.55408    56.568871    57.072391    58.565971    189081.45 
    1840    299.61526   -19456.355    1530.1711    1528.1288    1524.4984    1537.8861    47.666549    33.971553   -343.45746    56.569074    57.072578    58.565971    189082.75 
    1860    299.61526   -19456.742    1517.2958    1516.1649    1512.5475     1523.175    47.628656    34.025259   -343.35372    56.569278    57.072767    58.565971    189084.06 
    1880    299.61526   -19457.154    1503.5832    1503.4237    1499.8174    1507.5084    47.594698    34.080673    -343.2385    56.569497    57.072968    58.565971    189085.46 
    1900    299.61526   -19457.687    1485.7739    1486.8725    1483.2885    1487.1606     47.55397    34.149901   -343.07678    56.569782    57.073231    58.565971    189087.28 
    1920    299.61526   -19459.056     1439.652     1443.946    1440.4325    1434.5773    47.463768    34.313183   -342.66816    56.570545    57.073938    58.565971    189092.17 
    1940    299.61526   -19459.487    1425.5076    1430.8644    1427.3728    1418.2855    47.438774    34.367319   -342.55042     56.57076    57.074134    58.565971    189093.54 
    1960    299.61526   -19459.874     1412.498    1418.7731    1415.2984    1403.4225    47.417027    34.411944   -342.44623    56.570973    57.074332    58.565971    189094.91 
    1980    299.61526   -19460.266    1399.3036    1406.5142     1403.057    1388.3397    47.395612    34.461889   -342.34384     56.57119    57.074533    58.565971     189096.3 
    2000    299.61526   -19460.724    1383.9189    1392.2206    1388.7822     1370.754    47.372351    34.519478   -342.22771    56.571445    57.074769    58.565971    189097.93 
    2020    299.61526   -19462.375    1549.0725    1545.7225    1542.0005    1559.4945    47.526041    34.851039   -341.78696    56.563355    57.066506    58.554104    189005.21 
    2040    299.61526   -19462.785    1535.2855    1532.9313    1529.2307    1543.6946    47.476711    34.895433   -341.67801    56.563583    57.066712    58.554104    189006.66 
    2060    299.61526    -19463.16    1522.5855    1521.1252    1517.4525    1529.1788    47.432349     34.93475   -341.56507    56.563798    57.066907    58.554104    189008.02 
    2080    299.61526   -19463.543    1509.6228    1509.0758    1505.4316    1514.3611      47.3879    34.974116   -341.44588    56.564018    57.067108    58.554104    189009.42 
    2100    299.61526   -19463.988    1494.5199    1495.0391      1491.43    1497.0905    47.336422    35.018371   -341.30593    56.564276    57.067343    58.554104    189011.06 
    2120    299.61526   -19465.045    1460.8927    1464.1594    1460.8726    1457.6462     47.20072    35.120215   -340.93029    56.564749    57.067715    58.554104    189013.88 
    2140    299.61526   -19465.541    1427.9901    1433.2378    1429.7616     1420.971    47.116688    35.160001   -340.79999     56.56574    57.068731    58.554837    189022.92 
    2160    299.61526   -19465.918    1415.0388    1421.1943     1417.747     1406.175    47.066065    35.200899   -340.67667    56.565968     57.06894    58.554837    189024.37 
    2180    299.61526   -19466.295    1402.1474    1409.2136    1405.7969    1391.4318    47.011945    35.242759   -340.54841    56.566194    57.069146    58.554837    189025.81 
    2200    299.61526   -19466.718    1387.6102    1395.7038    1392.3204    1374.8066    46.950221    35.291489    -340.4037     56.56645    57.069381    58.554837    189027.44 
    2220    299.61526   -19467.474    1361.5176    1371.4524    1368.1181    1344.9825    46.839371    35.376217   -340.14494    56.566914    57.069811    58.554837    189030.42 
    2240    299.61526   -19468.926     1532.515    1530.3568    1526.6688    1540.5193    46.879486    35.595858   -339.70344    56.558787    57.061532     58.54297    188937.55 
    2260    299.61526   -19469.288    1519.9849    1518.7169    1515.0587    1526.1792    46.832471    35.624574    -339.5807    56.559013    57.061742     58.54297    188938.99 
    2280    299.61526   -19469.666    1506.8527    1506.5182    1502.8894    1511.1507    46.781963    35.656748   -339.45339    56.559251    57.061963     58.54297    188940.52 
    2300    299.61526   -19470.129    1490.7703    1491.5819    1487.9869    1492.7421     46.72097    35.692813   -339.29926    56.559541    57.062236     58.54297     188942.4 
    2320    299.61526   -19471.551    1442.0056    1446.4362    1442.9777    1436.6029    46.527414    35.832539   -338.81422    56.560391    57.063033     58.54297    188947.87 
    2340    299.61526   -19471.955    1427.0819     1432.469    1428.9429    1419.8338    46.471915    35.871027   -338.68807    56.560697    57.063344     58.54297    188949.92 
    2360    299.61526   -19472.318    1414.3475    1420.6574    1417.1354    1405.2497    46.422892    35.905936   -338.56652     56.56093     57.06357     58.54297    188951.45 
    2380    299.61526   -19472.684    1401.5077     1408.744     1405.228     1390.551    46.371323    35.947157   -338.44138    56.561167    57.063799     58.54297       188953 
    2400    299.61526     -19473.1    1386.8732     1395.163    1391.6573    1373.7992    46.313596    35.989483     -338.298    56.561437    57.064062     58.54297    188954.78 
    2420    299.61526   -19474.003    1355.8236     1366.524    1363.0132    1337.9337    46.195957    36.058074   -337.99226    56.561973    57.064586     58.54297     188958.3 
    2440    299.61526   -19474.538    1522.8753    1521.3899    1517.7903    1529.4456    46.335239    36.236531   -337.85069     56.55479    57.057306    58.532957    188877.89 
    2460    299.61526     -19474.9    1510.0923    1509.5298    1505.9312     1514.816    46.294407    36.268818   -337.73267    56.555029    57.057538    58.532957    188879.46 
    2480    299.61526   -19475.321    1495.1951    1495.7044    1492.1228    1497.7582    46.246332     36.30554   -337.59427    56.555309     57.05781    58.532957    188881.29 
    2500    299.61526   -19476.292    1467.3665    1471.3871    1467.5743     1463.138    46.151721    36.385422   -337.30686    56.555472    57.058001    58.532957    188882.47 
    2520    299.61526   -19476.723    1406.5177    1413.4453    1409.9315    1396.1762    46.044484    36.386702   -337.08785    56.557824    57.060329    58.535049    188904.78 
    2540    299.61526   -19477.104    1392.9553    1400.8647    1397.3677    1380.6335    46.003599    36.416211   -336.94382    56.558081    57.060582    58.535049    188906.48 
    2560    299.61526   -19477.616    1374.7338    1383.9645    1380.4948    1359.7422    45.952036    36.454586   -336.74153    56.558427    57.060923    58.535049    188908.76 
    2580    299.61526   -19478.618    1536.7277    1534.6113    1530.8742    1544.6978    46.158946     36.71585   -336.48562    56.551024    57.053444     58.52452    188825.31 
    2600    299.61526   -19478.963    1522.8238    1521.3449    1517.7145    1529.4122    46.122252     36.74628   -336.33491    56.551376     57.05378     58.52452     188827.6 
    2620    299.61526   -19479.318    1510.1248    1509.5654    1505.9551    1514.8539    46.090503    36.776645   -336.19106     56.55162    57.054021     58.52452    188829.21 
    2640    299.61526   -19479.731    1495.2862    1495.8075    1492.2149    1497.8361    46.054906    36.808533   -336.02325    56.551906    57.054304     58.52452     188831.1 
    2660    299.61526   -19480.877    1509.0868      1501.79    1498.6346     1526.836    46.022778    36.976784    -335.5218    56.551442    57.053741    58.519881    188812.72 
    2680    299.61526   -19481.216    1528.3054    1526.4495    1522.7816    1535.6851    46.095941    36.989578   -335.47609    56.549438    57.051788    58.519881    188799.56 
    2700    299.61526   -19481.559    1515.9458     1514.987    1511.3474    1521.5031    46.075094    37.000323   -335.33514    56.549681    57.052028    58.519881    188801.17 
    2720    299.61526   -19481.933     1502.413    1502.4357    1498.8227    1505.9805     46.04944     37.01298   -335.18264    56.549948    57.052292    58.519881    188802.93 
    2740    299.61526   -19482.451    1483.6402    1485.0243     1481.443    1484.4533    46.017584    37.020454   -334.98106    56.550319    57.052659    58.519881    188805.39 
    2760    299.61526   -19483.302    1419.8788    1425.8315    1422.3882    1411.4166    45.910464    36.979659   -334.63666    56.552275    57.054618    58.521635    188824.06 
    2780    299.61526   -19483.643    1407.7355    1414.6252    1411.1913      1397.39    45.890917    36.969676    -334.5061    56.552505    57.054846    58.521635    188825.58 
    2800    299.61526   -19484.008    1394.4473    1402.2983    1398.8803    1382.1632    45.871733    36.948507   -334.36937    56.552772    57.055109    58.521635    188827.34 
    2820    299.61526   -19484.483    1377.2031    1386.3128    1382.9173    1362.3793     45.84975    36.918894   -334.19166    56.553117    57.055449    58.521635    188829.62 
    2840    299.61526     -19485.5    1408.4046    1417.2167    1413.7377    1394.2594    45.931876    36.974352   -333.81969    56.550818    57.053114    58.518465    188803.99 
    2860    299.61526   -19485.911    1386.2504    1395.1784    1391.7593    1371.8133    45.898186     36.93966   -333.64812    56.551622    57.053917    58.518465    188809.33 
    2880    299.61526   -19486.343    1408.6019    1415.4261    1411.9676    1398.4121    45.944975    36.994979   -333.48469    56.550463    57.052742    58.516291    188794.56 
    2900    299.61526   -19486.701    1395.5935    1403.3892    1399.9559    1383.4354    45.937618    36.979308   -333.34669    56.550723       57.053    58.516291    188796.28 
    2920    299.61526   -19487.154    1378.9426    1387.9496    1384.5515    1364.3267     45.93505    36.957887   -333.16937    56.551065    57.053338    58.516291    188798.54 
    2940    299.61526   -19488.422    1533.3454     1531.227    1527.5505    1541.2588    46.254573    37.279048   -332.69965     56.54387    57.046047     58.50551    188715.62 
    2960    299.61526   -19488.752    1520.8439    1519.5736     1515.921    1527.0371    46.252896      37.2637     -332.562    56.544146    57.046321     58.50551    188717.45 
    2980    299.61526   -19489.098    1507.9916    1507.6554    1504.0266    1512.2927    46.250007    37.246782   -332.41563    56.544416    57.046588     58.50551    188719.24 
    3000    299.61526   -19489.519    1492.3437    1493.1456    1489.5444    1494.3409    46.248517    37.225006   -332.23713    56.544747    57.046916     58.50551    188721.42 
    3020    299.61526   -19490.493    1446.0371    1449.4482    1450.7523    1437.9109    46.258715    37.116526   -331.18481    56.546075    57.047464    58.506466    188730.75 
    3040    299.61526   -19490.843    1423.8874    1429.6612    1426.2101    1415.7908    46.228955    37.088056   -331.68113    56.546566    57.048739    58.506533    188736.83 
    3060    299.61526   -19491.172    1411.5678    1418.2348    1414.8155     1401.653    46.235156    37.062693   -331.54206    56.546828    57.049001    58.506533    188738.57 
    3080    299.61526   -19491.515    1398.7251    1406.3188      1402.94    1386.9164    46.241793    37.036479   -331.39082    56.547102    57.049276    58.506533    188740.39 
    3100    299.61526   -19491.925    1383.3508    1392.0541    1388.7248    1369.2737    46.253261    37.004287   -331.21121    56.547432    57.049607    58.506533    188742.59 
    3120    299.61526   -19493.148    1420.2522    1425.2476    1421.8601     1413.649     46.41987    37.080154    -330.7328     56.54521     57.04736    58.501823    188712.55 
    3140    299.61526   -19493.475    1412.8532    1419.4509    1416.0183    1403.0904    46.444293    37.057975   -330.60797    56.545126    57.047287    58.501823    188712.03 
    3160    299.61526   -19493.812    1400.0967    1407.6228    1404.2073      1388.46    46.456764    37.028803   -330.47239    56.545403     57.04757    58.501823    188713.88 
    3180    299.61526   -19494.207    1385.1304    1393.7474    1390.3605    1371.2834    46.472256    36.994263   -330.31283    56.545728    57.047901    58.501823    188716.07 
    3200    299.61526   -19495.225    1546.3614    1542.5015    1531.2593    1565.3235    46.810829    37.299582    -331.0088    56.538509    57.041852    58.489956    188633.69 
    3220    299.61526   -19495.547    1514.0206    1513.2796    1509.6428    1519.1392    46.837966     37.19336   -329.86196    56.539561    57.041691    58.492187    188643.87 
    3240    299.61526   -19495.913    1500.0795    1500.3562    1496.7441    1503.1381    46.858983    37.155975   -329.70194    56.539867    57.042006    58.492187    188645.93 
    3260    299.61526   -19496.509    1479.7059     1481.917    1478.4155    1478.7852    46.899014    37.093315    -329.4342    56.540211    57.042349    58.492187    188648.21 
    3280    299.61526   -19496.948    1516.3674    1515.4624    1511.8015    1521.8384    47.011419    37.138205   -329.27551    56.538484    57.040624    58.489196     188627.1 
    3300    299.61526   -19497.301    1502.8816    1502.9635    1499.3308    1506.3506    47.030934    37.100021   -329.11874    56.538784    57.040931    58.489196    188629.11 
    3320    299.61526   -19497.794    1483.9478    1485.4085    1481.8223    1484.6126    47.055805    37.045407   -328.89719    56.539208    57.041365    58.489196    188631.96 
    3340    299.61526   -19498.549    1404.5711    1411.8577    1408.4495    1393.4061    47.003284     36.87013   -328.50669     56.54189    57.044085    58.491902    188658.63 
    3360    299.61526   -19498.911    1390.4094    1398.6689    1395.3403    1377.2191     47.01829    36.822772    -328.3234    56.542222     57.04442    58.491902    188660.85 
    3380    299.61526   -19499.485    1383.4518    1395.3887     1392.144    1362.8226    47.091584    36.747089   -328.01688    56.541663    57.043855    58.491902    188657.12 
    3400    299.61526   -19499.821    1411.1788    1417.9317    1414.5538    1401.0508    47.152371    36.800036    -327.8653    56.540756    57.042956    58.488899    188641.43 
    3420    299.61526   -19500.155    1398.1783      1405.87    1402.5445    1386.1205    47.171557    36.751993   -327.66919    56.541054    57.043262    58.488899    188643.44 
    3440    299.61526   -19500.561    1382.4269    1391.2688    1387.9987     1368.013     47.19806    36.692931   -327.43062    56.541414    57.043631    58.488899    188645.86 
    3460    299.61526   -19501.274    1413.8946    1420.7936    1417.3934    1403.4969    47.328633    36.691268   -327.06889    56.539608    57.041827    58.485805    188623.89 
    3480    299.61526   -19501.603    1399.5405    1407.1519    1403.8289    1387.6407     47.33598    36.639251   -326.87195    56.540012    57.042234    58.485805    188626.58 
    3500    299.61526   -19501.995     1384.226    1392.9485    1389.6783    1370.0512    47.346032     36.58444   -326.64667    56.540368    57.042597    58.485805    188628.97 
    3520    299.61526   -19502.625    1425.6151    1430.4733    1427.1034    1419.2686    47.465901    36.609257    -326.3182    56.538392    57.040606    58.482048    188603.68 
    3540    299.61526   -19502.943    1417.2047    1423.5457    1420.1804     1407.888    47.490919    36.562378   -326.14015    56.538397    57.040618    58.482048    188603.73 
    3560    299.61526   -19503.263    1404.6261    1411.8832    1408.5636    1393.4316    47.505521    36.512364   -325.95774    56.538692    57.040919    58.482048    188605.71 
    3580    299.61526   -19503.619    1390.6074    1398.8818    1395.6131    1377.3273    47.521883    36.448463   -325.75918    56.539021    57.041255    58.482048    188607.92 
    3600    299.61526   -19504.181    1364.9983    1374.3948     1371.234    1349.3661    47.532613    36.352705   -325.43029    56.539789    57.042034    58.482048    188613.06 
    3620    299.61526   -19504.666    1433.7653    1438.9103    1435.4995     1426.886    47.668019    36.405283   -325.19872    56.536581    57.038809     58.47752    188577.09 
    3640    299.61526   -19504.987    1421.0594    1427.1288    1423.7669    1412.2827    47.681339    36.351647   -325.01151    56.536882    57.039117     58.47752    188579.12 
    3660    299.61526   -19505.302    1408.5685     1415.548     1412.228    1397.9294    47.693937    36.303579   -324.82938    56.537179    57.039423     58.47752    188581.12 
    3680    299.61526    -19505.64    1395.1335    1403.0928    1399.8136    1382.4941    47.706666    36.254505   -324.63236    56.537501    57.039753     58.47752    188583.28 
    3700    299.61526   -19506.081     1377.574    1386.8028    1383.5824    1362.3367    47.725189    36.186733   -324.36446    56.537923    57.040189     58.47752    188586.13 
    3720    299.61526    -19506.75    1521.0134    1520.2508    1516.6629    1526.1264    47.980551    36.344459    -324.0659    56.531633    57.033835    58.468523    188515.14 
    3740    299.61526   -19507.085    1505.3726    1505.3477    1501.6592    1509.1108    47.984815    36.291028   -323.87816    56.532103    57.034339    58.468523    188518.37 
    3760    299.61526   -19507.523    1488.0162    1489.2766    1485.6536    1489.1183    48.006565    36.217962   -323.59607    56.532518    57.034764    58.468523    188521.16 
    3780    299.61526    -19508.07    1403.0879    1414.0994    1410.7577    1384.4066    47.966759    36.000111   -323.17403    56.535094    57.037378    58.472813    188552.22 
    3800    299.61526   -19508.405    1396.0883    1404.2108    1400.9817    1383.0723    47.980291    35.972174   -322.94601    56.535641    57.037922    58.471612    188551.98 
    3820    299.61526   -19508.788     1424.071    1431.7263    1428.3688    1412.1177    48.073288    35.953846   -322.73535    56.534048    57.036323    58.469682    188535.15 
    3840    299.61526   -19509.103    1402.8398     1410.243    1406.9672    1391.3092    48.074078    35.885485   -322.51991    56.534959    57.037246    58.469682    188541.24 
    3860    299.61526   -19509.465    1388.2108    1396.6854     1393.449    1374.4982    48.097633    35.814476   -322.28513    56.535321    57.037617    58.469682    188543.68 
    3880    299.61526   -19510.395    1464.1836    1502.9405    1436.7833    1452.8269    48.272079    35.768032   -330.14861    56.525989    57.038423    58.464736    188499.27 
    3900    299.61526   -19510.769    1400.0867    1413.2079    1402.0012     1385.051    48.272342    35.627989   -322.54156    56.533159    57.036762    58.466608    188523.73 
    3920    299.61526   -19511.106    1394.9961    1403.1331    1399.8739    1381.9814    48.308204    35.572447    -321.2679    56.533987    57.036317    58.465793    188522.39 
    3940    299.61526    -19511.49    1429.1823    1436.3184    1432.9332    1418.2953    48.405349    35.537714   -321.06297    56.532156    57.034483    58.463499    188502.82 
    3960    299.61526   -19511.797    1408.9839    1415.9834    1412.6655    1398.3028    48.405721    35.469647     -320.848    56.533006    57.035351    58.463499    188508.53 
    3980    299.61526   -19512.131    1395.3266    1403.3231    1400.0574    1382.5994    48.425916    35.392554   -320.62115     56.53335    57.035708    58.463499    188510.85 
    4000    299.61526   -19512.566    1377.4975     1386.802     1383.597    1362.0935    48.452951    35.288547   -320.32885    56.533799    57.036177    58.463499     188513.9 
    4020    299.61526   -19513.246    1442.4458    1447.8209    1444.5036     1435.013    48.609551    35.248476     -319.948    56.530648    57.033005    58.458738    188477.56 
    4040    299.61526   -19513.569    1425.0711    1430.9187    1427.5193    1416.7753    48.615715    35.181341    -319.7586    56.531262    57.033658    58.458738    188481.77 
    4060    299.61526   -19513.879    1412.2742    1419.0578    1415.6969     1402.068    48.628359    35.115504   -319.56138    56.531589       57.034    58.458738    188483.99 
    4080    299.61526   -19514.203    1398.8782    1406.6399    1403.3244    1386.6703    48.642623    35.044486   -319.35504    56.531932    57.034358    58.458738    188486.31 
    4100    299.61526   -19514.593     1382.702    1391.6399    1388.3796    1368.0865    48.656794    34.968075   -319.11212    56.532348    57.034793    58.458738    188489.14 
    4120    299.61526     -19515.2    1451.4052    1456.4838    1453.0552    1444.6767    48.798611    34.943986   -318.78354    56.529049    57.031481    58.454008    188451.94 
    4140    299.61526   -19515.529     1426.323    1432.1275    1428.7296    1418.1119    48.783587    34.879712   -318.58284    56.530018    57.032478    58.454333    188459.52 
    4160    299.61526   -19515.839    1413.2441    1419.9657    1416.6073    1403.1592    48.783838    34.825001   -318.39423    56.530366    57.032839    58.454333    188461.87 
    4180    299.61526    -19516.16     1399.827    1407.5295    1404.2088    1387.7428    48.783371    34.772621   -318.20069    56.530716    57.033203    58.454333    188464.24 
    4200    299.61526   -19516.542     1383.893    1392.7612    1389.4828    1369.4351    48.777621    34.724394   -317.97895    56.531133    57.033637    58.454333    188467.06 
    4220    299.61526   -19517.078    1430.1291    1435.8492    1432.7178    1421.8203    48.868343    34.699792   -317.64562    56.528923    57.031378    58.450752    188440.69 
    4240    299.61526   -19517.387    1415.4722    1422.0425    1418.6879    1405.6861    48.870081    34.654804   -317.50072    56.529362    57.031873    58.450752    188443.79 
    4260    299.61526   -19517.705    1402.1539    1409.6998    1406.3881    1390.3739    48.880351    34.602374   -317.31649    56.529714    57.032236    58.450752    188446.16 
    4280    299.61526   -19518.069    1386.8458    1395.5105    1392.2498    1372.7772    48.895078    34.534374   -317.11058    56.530121    57.032656    58.450752     188448.9 
    4300    299.61526   -19518.555    1441.5267    1445.3028    1441.9018    1437.3755    49.006902    34.535076   -316.83627    56.527762    57.030283    58.446503     188419.5 
    4320    299.61526   -19518.891    1429.7808    1434.9446    1431.5375    1422.8603    49.019773    34.481324   -316.65306    56.527968    57.030507    58.446503    188420.93 
    4340    299.61526   -19519.203    1418.4373    1424.8179    1421.4432    1409.0507    49.029405    34.435356   -316.47592    56.528193    57.030743    58.446503    188422.46 
    4360    299.61526   -19519.517    1405.2124    1412.5672    1409.2316    1393.8385    49.038445     34.38511   -316.30216    56.528546    57.031108    58.446503    188424.84 
    4380    299.61526   -19519.865    1390.5247    1398.9589    1395.6679    1376.9472    49.051009    34.328786   -316.10921    56.528941    57.031515    58.446503     188427.5 
    4400    299.61526   -19520.457    1526.4454    1544.7053    1544.1215    1490.5093    49.378404    34.275223   -315.39259    56.520398    57.022387    58.443301    188358.55 
    4420    299.61526   -19520.778    1511.4608    1508.2144    1504.1543    1522.0138    49.287929    34.346996   -315.61167    56.523943    57.026564    58.437188    188364.46 
    4440    299.61526   -19521.091    1512.5575    1512.0836     1508.389       1517.2    49.330346    34.288944   -315.39457     56.52333    57.025891    58.437188     188360.2 
    4460    299.61526   -19521.453    1497.6916    1498.4333    1494.7856    1499.8558    49.345915    34.228452   -315.19705     56.52371    57.026284    58.437188    188362.76 
    4480    299.61526   -19521.815     1542.243    1539.7827    1535.9732    1550.9731    49.432209    34.220822   -314.97094    56.521709    57.024278    58.433988    188339.15 
    4500    299.61526   -19522.124    1528.1353    1526.5269    1522.7686    1535.1103    49.442861    34.168983   -314.79063    56.522134    57.024713    58.433988       188342 
    4520    299.61526   -19522.437    1514.6792    1514.0547     1510.348    1519.6351    49.455062    34.115437   -314.60101    56.522505    57.025094    58.433988     188344.5 
    4540    299.61526   -19522.788    1499.5896    1500.0689     1496.419    1502.2809    49.465132    34.056509   -314.38808    56.522923    57.025522    58.433988    188347.31 
    4560    299.61526   -19523.358    1512.5409    1515.6246    1511.4526    1510.5454    49.536915    33.982453   -314.11936    56.521592     57.02427    58.432823    188334.98 
    4580    299.61526   -19523.649    1524.2195    1522.9072    1519.1862    1530.5652    49.563733    33.964249   -313.86325    56.521465    57.024072     58.43069    188327.03 
    4600    299.61526    -19523.97    1510.3513    1510.0435     1506.369    1514.6413    49.574125    33.909956   -313.68286    56.521853    57.024471     58.43069    188329.64 
    4620    299.61526   -19524.349    1493.8778    1494.7642    1491.1468    1495.7223    49.586275    33.850117   -313.47232    56.522315    57.024947     58.43069    188332.75 
    4640    299.61526   -19524.817    1393.4536    1397.9832    1394.6876    1387.6899    49.477622    33.761494   -313.25814    56.526633    57.029313    58.434041    188372.36 
    4660    299.61526   -19525.136    1398.1067    1405.9004    1402.5717     1385.848    49.529794    33.715319   -313.08527     56.52577    57.028454    58.433967    188366.41 
    4680    299.61526   -19525.489    1404.3416    1408.6615      1405.35    1399.0133    49.567123    33.683487   -312.85442    56.525753    57.028445     58.43205    188360.14 
    4700    299.61526     -19525.8    1405.6246    1412.9922    1409.6259    1394.2557    49.613065    33.635899   -312.68797    56.525097    57.027799     58.43205    188355.82 
    4720    299.61526   -19526.148    1390.3866    1398.8662    1395.5332    1376.7603    49.631881    33.585052   -312.49101    56.525528    57.028248     58.43205    188358.74 
    4740    299.61526   -19526.537    1444.0699    1450.1709    1446.6764    1435.3625    49.766543     33.54251   -312.23025    56.522939    57.025655    58.428661    188330.63 
    4760    299.61526   -19526.852    1423.0124    1429.1014    1425.6791    1414.2568    49.771031    33.497992   -312.02971    56.523837    57.026577    58.428661    188336.66 
    4780    299.61526   -19527.168    1409.2757    1416.3823     1413.005    1398.4397    49.791882    33.449608   -311.83056    56.524221    57.026981    58.428661    188339.28 
    4800    299.61526   -19527.505    1394.5291    1402.7175    1399.3828     1381.487    49.812165    33.396393   -311.61988    56.524636    57.027419    58.428661    188342.11 
    4820    299.61526   -19527.962    1374.0659     1383.681    1380.3813    1358.1353    49.838486     33.33146   -311.34252    56.525229    57.028047    58.428661    188346.16 
    4840    299.61526   -19528.372     1421.973    1428.2246    1424.7876    1412.9067    49.973708    33.278931   -311.05792    56.523062    57.025886    58.425166    188320.54 
    4860    299.61526   -19528.691     1407.757    1414.9899    1411.6326    1396.6486    49.997448     33.23015   -310.85905    56.523478    57.026317    58.425166    188323.34 
    4880    299.61526   -19529.035    1392.6048    1400.9397    1397.6268    1379.2478    50.019705    33.185381   -310.64707    56.523911    57.026774    58.425166    188326.29 
    4900    299.61526   -19529.464    1450.1322    1459.6682    1456.1781    1434.5504    50.184919    33.137332   -310.37269    56.520615     57.02347    58.422446    188295.64 
    4920    299.61526   -19529.767    1411.1744    1418.1691    1414.8052     1400.549     50.14379    33.104423   -310.18073    56.522782    57.025676    58.422446    188310.14 
    4940    299.61526   -19530.103    1396.1965    1404.2685    1400.9434    1383.3775    50.165712    33.055003   -309.97823    56.523216    57.026136    58.422446     188313.1 
    4960    299.61526   -19530.528    1438.7048    1456.2219    1452.6218    1407.2707    50.327772    32.970968   -309.75541     56.51953    57.022461     58.42233    188288.32 
    4980    299.61526   -19530.813    1425.8006    1431.3807    1427.9648    1418.0563    50.293878    32.979626   -309.51503    56.521707    57.024659    58.419088    188292.38 
    5000    299.61526   -19531.135    1413.0186    1419.8639    1416.4819    1402.7101    50.313904    32.926444   -309.31087    56.522014    57.024988    58.419088    188294.49 
    5020    299.61526   -19531.469    1398.1018    1406.0428    1402.7044    1385.5581    50.325145    32.869814   -309.09593    56.522447    57.025445    58.419088    188297.44 
    5040    299.61526   -19531.877    1377.2545    1386.1882    1382.8956    1362.6797    50.328765    32.804755   -308.83337    56.523158    57.026189    58.419088    188302.27 
    5060    299.61526   -19532.208    1414.0788    1420.8961    1417.5248    1403.8157    50.421191    32.764913   -308.60622    56.521429     57.02446    58.416473    188282.37 
    5080    299.61526   -19532.543    1398.8688    1406.7596    1403.4375    1386.4093    50.435164    32.707741   -308.39258    56.521884    57.024936    58.416473    188285.45 
    5100    299.61526   -19532.922    1403.6819    1403.8789    1400.6001    1406.5669    50.455024    32.668528   -308.11413    56.522531    57.025605    58.413445    188280.06 
    5120    299.61526   -19533.231    1424.4974    1430.5352    1427.1313    1415.8258    50.551413    32.600092   -307.93819    56.520513    57.023593    58.413445    188266.69 
    5140    299.61526   -19533.558    1409.7077     1416.833    1413.4661    1398.8241    50.562103    32.537635   -307.72687     56.52095    57.024054    58.413445    188269.67 
    5160    299.61526   -19533.904    1394.0294    1402.3074    1398.9846    1380.7963    50.569996    32.470312   -307.49998    56.521414    57.024543    58.413445    188272.83 
    5180    299.61526   -19534.363    1451.3529    1471.8421    1466.1607    1416.0558    50.771739    32.350664   -307.51526    56.516567    57.020031    58.413148    188240.83 
    5200    299.61526   -19534.647    1423.9374    1430.0735    1426.6781    1415.0607    50.691936    32.340671   -306.99025    56.519845    57.023005    58.410052    188251.59 
    5220    299.61526   -19534.978    1408.5606    1415.7866    1412.4104    1397.4849    50.700663    32.283141   -306.77838    56.520311      57.0235    58.410052    188254.78 
    5240    299.61526   -19535.331    1392.3915    1400.8092      1397.47    1378.8952    50.708108    32.227565   -306.55255    56.520794    57.024011    58.410052    188258.08 
    5260    299.61526   -19535.768    1400.6727    1402.6512    1399.0773    1400.2894    50.738928     32.18739   -306.27493    56.521068    57.024351    58.407029    188250.37 
    5280    299.61526   -19536.073    1414.5883    1421.3339    1417.9218     1404.509    50.815427    32.119179    -306.0728    56.519559    57.022813    58.407029    188240.26 
    5300    299.61526   -19536.415    1399.0732    1407.0187    1403.6373    1386.5636    50.813574    32.045777    -305.8636    56.520016    57.023296    58.407029    188243.38 
    5320    299.61526   -19536.814    1432.0705    1447.4954    1443.9899    1404.7261    50.920676    31.955734   -305.63124    56.517117    57.020399    58.406787    188223.38 
    5340    299.61526   -19537.104    1418.7924     1425.156    1421.7499    1409.4712    50.874576    31.938046   -305.40521    56.518921    57.022232    58.404243    188227.24 
    5360    299.61526   -19537.444    1403.6941    1411.2971    1407.9309    1391.8543    50.859611    31.879072    -305.1937    56.519354    57.022689    58.404243    188230.19 
    5380    299.61526   -19537.821    1383.2297    1391.7039    1388.3948    1369.5906     50.84009    31.815511   -304.94713    56.520093    57.023456    58.404243    188235.19 
    5400    299.61526    -19538.14    1426.0902    1432.2428     1428.807    1417.2208    50.906622    31.790514   -304.73073    56.518105    57.021472    58.401364    188212.73 
    5420    299.61526   -19538.482    1409.3657    1416.5651    1413.1742    1398.3578    50.900549    31.733953   -304.50429    56.518646    57.022042    58.401364    188216.42 
    5440    299.61526   -19538.842    1392.6542    1401.1037    1397.7476    1379.1113    50.896499    31.673038   -304.26654    56.519149    57.022579    58.401364    188219.87 
    5460    299.61526   -19539.191    1438.1436    1441.0308    1437.5093    1435.8907    50.971454    31.650609   -304.02333    56.517466    57.020917    58.397489    188196.29 
    5480    299.61526   -19539.523    1404.4964    1412.1234    1408.7018     1392.664    50.958243    31.577667   -303.80421     56.51835    57.021834    58.399033    188207.24 
    5500    299.61526   -19539.897    1424.3554    1437.1613    1433.7581    1402.1469    51.029648    31.504615    -303.5503    56.516448    57.019939    58.398727    188193.66 
    5520    299.61526   -19540.207    1425.5107    1430.2423    1426.7532    1419.5366    51.032047    31.486361   -303.31874    56.517374    57.020918    58.395848     188190.7 
    5540    299.61526   -19540.556    1415.4133    1422.2244    1418.7499    1405.2656    51.051148    31.415827   -303.08757    56.517431    57.021012    58.395848     188191.2 
    5560    299.61526   -19540.914    1398.5766    1406.6404    1403.1871    1385.9021    51.059032     31.34311   -302.84831     56.51794    57.021566    58.395848    188194.72 
    5580    299.61526   -19541.287      1415.93    1416.1723    1412.6229    1418.9947    51.096748    31.308046   -302.57706    56.517981     57.02166    58.392314    188183.78 
    5600    299.61526   -19541.602    1417.5019    1424.1023    1420.6338    1407.7696    51.137206    31.225127   -302.36913    56.516864    57.020556    58.393084     188178.9 
    5620    299.61526   -19541.961    1400.8782    1408.7945     1405.362    1388.4781    51.145481    31.146325   -302.12175    56.517355     57.02109    58.393084    188182.29 
    5640    299.61526   -19542.335    1418.6129    1417.0314    1413.5355    1425.2719    51.179949    31.110498   -301.82974    56.517614    57.021397    58.389109    188171.36 
    5660    299.61526   -19542.641    1440.0931    1447.2855     1443.818    1429.1759    51.249755    31.021719   -301.62489    56.515156    57.018938    58.389816    188157.34 
    5680    299.61526   -19542.985    1413.6177    1420.6654    1417.2395    1402.9481    51.233255    30.946452   -301.37633    56.516359    57.020192    58.389816    188165.48 
    5700    299.61526   -19543.355    1395.6319    1403.9674    1400.5832    1382.3451    51.235085    30.858101   -301.10373     56.51692      57.0208    58.389816    188169.36 
    5720    299.61526   -19543.725    1451.3346    1456.0942    1452.5687    1445.3409    51.325583    30.804105   -300.81789    56.514431    57.018334    58.386029    188140.73 
    5740    299.61526   -19544.052    1390.6462     1397.042    1393.6232    1381.2735    51.268098    30.708963   -300.56754    56.517127    57.021097    58.387698     188164.2 
    5760    299.61526   -19544.391    1413.0977    1420.1867    1416.7372    1402.3691    51.335723    30.634753   -300.30437    56.515739    57.019733    58.386227    188150.34 
    5780    299.61526   -19544.768    1392.1755    1400.2672    1396.8439    1379.4155    51.351587     30.53283   -300.01557    56.516487    57.020537    58.386227    188155.48 
    5800    299.61526   -19545.084    1402.9374     1408.832    1405.3542     1394.626    51.388914    30.468696   -299.76522    56.516106    57.020195     58.38448    188147.45 
    5820    299.61526   -19545.452      1396.17    1400.2904    1396.7797    1391.4398    51.411927    30.384669   -299.47324     56.51653    57.020676    58.383302    188146.65 
    5840    299.61526   -19545.795    1413.8446    1420.7167    1417.2311     1403.586    51.476141    30.294669   -299.20598    56.515091     57.01926    58.382507    188134.63 
    5860    299.61526   -19546.179    1394.9527    1403.2096     1399.754    1381.8944    51.491182    30.183369   -298.90072    56.515682    57.019907    58.382507    188138.73 
    5880    299.61526    -19546.52    1431.4512    1438.3187    1434.8377    1421.1973    51.548708    30.111305   -298.62158    56.513871    57.018117    58.380015    188118.77 
    5900    299.61526   -19546.902    1407.4278      1414.99    1411.5281    1395.7654    51.539574    30.009567   -298.30476     56.51482    57.019129    58.380015    188125.27 
    5920    299.61526   -19547.302    1418.7277    1431.9193    1428.5293    1395.7346    51.574205    29.904631   -297.98598     56.51328    57.017614    58.380015    188115.14 
    5940    299.61526   -19547.546    1468.1881    1473.0751    1469.5576    1461.9316    51.627869    29.873046   -297.77025    56.511827    57.016187     58.37556    188091.24 
    5960    299.61526   -19547.884    1406.0193    1413.7097    1410.2309    1394.1174    51.566336    29.781971    -297.5093    56.514437    57.018875    58.377518    188115.11 
    5980    299.61526   -19548.275    1441.3384    1451.8523    1448.4444    1423.7184    51.629321    29.689576   -297.19226    56.512073    57.016527    58.376001    188094.61 
    6000    299.61526   -19548.618    1423.2401    1429.6326    1426.1094    1413.9781      51.6085    29.634595   -296.92717    56.513415    57.017953    58.374657    188099.44 
    6020    299.61526   -19549.024    1403.0187    1410.9161    1407.3972    1390.7427    51.614547    29.536169   -296.61776    56.514049    57.018655    58.374657    188103.87 
    6040    299.61526   -19549.397    1411.8148    1415.3946    1411.7662    1408.2835    51.655897    29.465996   -296.32091     56.51404    57.018716    58.372259    188096.32 
    6060    299.61526   -19549.782    1409.2832    1416.5088    1412.9682    1398.3727    51.710608    29.354451     -296.023    56.513486    57.018202    58.372259    188092.78 
    6080    299.61526   -19550.181    1416.0398    1415.0452    1411.3735    1421.7008    51.748159    29.290948   -295.68496    56.514118    57.018919    58.368867    188086.31 
    6100    299.61526   -19550.413    1427.0902    1430.1625    1426.5577    1424.5504     51.79827    29.222778   -295.50426    56.512883    57.017698    58.368908    188078.31 
    6120    299.61526   -19550.748     1419.351    1425.6327    1422.0986    1410.3217    51.828339    29.123729   -295.23839     56.51268    57.017535      58.3691    188077.71 
    6140    299.61526   -19551.173    1401.1317    1409.4414    1405.9458     1388.008    51.847004    29.011981   -294.90182    56.513136    57.018056      58.3691    188080.95 
    6160    299.61526   -19551.507    1422.8841    1420.3005    1416.6563    1431.6955    51.872995    29.001583   -294.60048    56.513414    57.018403    58.364687     188068.8 
    6180    299.61526   -19551.752    1482.6922    1490.4512    1486.9983    1470.6272    51.952257     28.94034   -294.39897    56.508824    57.013767     58.36462    188038.02 
    6200    299.61526   -19552.009    1550.3707    1548.1708    1544.5469    1558.3944     52.01146     28.94513   -294.16518    56.506674    57.011646     58.35908    188006.02 
    6220    299.61526   -19552.438    1524.2902    1523.1275    1519.5187    1530.2245    52.011382     28.83746   -293.82195    56.507666    57.012716     58.35908    188012.85 
    6240    299.61526   -19552.873    1501.0907    1501.4139    1497.8249    1504.0331     51.99818    28.736966   -293.46448    56.508445    57.013573     58.35908    188018.27 
    6260    299.61526   -19553.137    1433.8462    1437.7457    1434.1537    1429.6394    51.954918     28.65419   -293.26312    56.511242    57.016452     58.36157     188045.1 
    6280    299.61526    -19553.55    1422.5095    1429.2508    1425.7266     1412.551    51.953366    28.547347   -292.91912    56.511236    57.016512     58.36157    188045.27 
    6300    299.61526   -19554.016     1395.333    1403.3808    1399.8566    1382.7618    51.939727    28.423115   -292.52814    56.512225    57.017601     58.36157    188052.16 
    6320    299.61526   -19554.293    1535.1372     1526.279    1522.5032    1556.6295    52.013422    28.457773    -292.2607     56.50737    57.012767    58.351734    187988.37 
    6340    299.61526   -19554.589     1531.091    1530.0248    1526.4682    1536.7799    52.008794      28.3677   -292.01987     56.50635     57.01177    58.353063    187985.97 
    6360    299.61526   -19555.049    1499.5787    1497.1786    1493.4902    1508.0674    52.001631    28.267217   -291.64267     56.50793    57.013479    58.352533    187995.16 
    6380    299.61526   -19555.298    1514.9513    1514.9344    1511.3986    1518.5209    52.021462    28.207597   -291.41936    56.506702    57.012269     58.35195     187985.2 
    6400    299.61526   -19555.694    1527.3712    1524.8025    1521.2085    1536.1026    52.054899    28.136923   -291.07886     56.50625      57.0119    58.349793    187975.53 
    6420    299.61526   -19556.178    1512.3083    1512.9211    1509.3934    1514.6103    52.071548    28.023969   -290.65836    56.506353    57.012093    58.349793    187976.51 
    6440    299.61526    -19556.47    1537.9238    1533.5216    1529.8729     1550.377    52.101655    27.993175   -290.40727    56.505622    57.011429    58.346839    187962.37 
    6460    299.61526   -19556.947    1516.4408    1515.5768    1512.0004    1521.7453    52.117293    27.857937    -289.9466    56.506002    57.011906    58.347172    187966.28 
    6480    299.61526   -19557.374    1533.6144    1529.0676    1525.3892    1546.3864    52.150424    27.782695   -289.54306    56.505449    57.011456    58.344477    187954.28 
    6500    299.61526   -19557.852    1508.3888    1507.8579    1504.2659    1513.0426    52.152729    27.649423   -289.04229    56.505947    57.012061    58.345056    187959.79 
    6520    299.61526   -19558.165    1475.1962    1474.7949    1471.0983    1479.6954    52.137835    27.561294   -288.70729    56.507468    57.013694    58.345354     187971.2 
    6540    299.61526   -19558.387    1481.9718    1487.9964     1484.603    1473.3159    52.150361    27.488424   -288.44965    56.506117    57.012347    58.346175    187964.91 
    6560    299.61526   -19558.734    1539.3561    1536.0447    1532.3917    1549.6319    52.173884    27.472043   -288.13999    56.504347    57.010676     58.34087    187936.42 
    6580    299.61526   -19559.309    1514.4443    1514.0147    1510.4127    1518.9054    52.170804    27.314967   -287.50128    56.504938    57.011422     58.34087    187940.84 
    6600    299.61526   -19559.749    1566.7143    1566.9529    1563.5303    1569.6599    52.203811    27.225838   -287.04668    56.501985    57.008526    58.338062    187912.43 
    6620    299.61526    -19560.02    1555.8893     1556.397    1552.9095    1558.3615    52.210803    27.148935   -286.75524    56.502369       57.009    58.337742    187914.24 
    6640    299.61526   -19560.342    1521.8353    1521.7859    1518.2148    1525.5051    52.207113    27.059388   -286.38815    56.504023    57.010778    58.337864    187925.99 
    6660    299.61526   -19560.725    1557.5547    1548.1853    1544.3147     1580.164     52.22572    27.026185   -286.02117    56.503333    57.010224    58.333197    187906.84 
    6680    299.61526   -19560.915    1528.2938    1530.9554    1527.5329    1526.3931    52.213086    26.921099   -285.73556    56.503044     57.00993    58.336755    187916.37 
    6700    299.61526   -19561.317    1518.4631    1516.0557    1512.3797    1526.9539    52.188048    26.849464    -285.2908    56.504062    57.011105    58.334662    187916.89 
    6720    299.61526   -19561.837    1552.3157    1548.5113    1544.8745    1563.5612    52.197401    26.757121   -284.69753    56.502292    57.009454    58.331712    187896.06 
    6740    299.61526   -19562.462     1520.969    1519.8366    1516.2076    1526.8629    52.185284    26.586544   -283.91696    56.503208    57.010565    58.331712    187902.77 
    6760    299.61526   -19562.954    1508.7581    1516.2316    1512.9499    1497.0929    52.178523    26.419156   -283.26001    56.502386    57.009835    58.332968    187901.67 
    6780    299.61526   -19563.254    1446.4175    1453.4873    1449.9849    1435.7803    52.149444    26.328174   -282.87167     56.50546    57.013073    58.334127     187926.3 
    6800    299.61526   -19563.922    1398.7073    1406.7268    1403.2361    1386.1589    52.137771    26.145078   -281.98196    56.507424    57.015269    58.334127    187940.07 
    6820    299.61526   -19564.289    1438.2477    1442.0038    1438.4479    1434.2914    52.172066     26.08043    -281.5632    56.505837    57.013778    58.330661    187918.71 
    6840    299.61526   -19564.551     1434.282    1442.4148    1439.0094    1421.4218    52.180078    26.003068   -281.21928    56.505295    57.013296    58.331186    187917.01 
    6860    299.61526   -19564.784    1375.9396    1379.4821    1375.7252    1372.6116    52.158737    25.941238   -280.91739    56.508783    57.016952    58.331331    187941.13 
    6880    299.61526   -19564.983    1404.5829    1410.2078    1406.6004    1396.9405    52.182074    25.894465   -280.67287    56.506939    57.015128    58.330337    187925.78 
    6900    299.61526   -19565.208     1430.266    1431.0452     1427.256    1432.4968    52.208276    25.860352    -280.4321    56.506202    57.014477     58.32758     187912.3 
    6920    299.61526    -19565.57    1483.7519    1493.0654    1489.8764     1468.314    52.263526    25.760064   -279.95381    56.502107    57.010379    58.326963     187883.2 
    6940    299.61526   -19565.863    1529.3657     1525.824    1522.1162     1540.157    52.306288    25.733896   -279.67984    56.501444    57.009873    58.321264    187860.97 
    6960    299.61526   -19566.597    1492.2684    1479.9832    1475.8099    1521.0122     52.33166    25.564881   -278.75303    56.504179    57.012952    58.318202    187870.34 
    6980    299.61526   -19566.799    1406.7215    1410.4671    1406.8099    1402.8876    52.302933    25.435587   -278.35797    56.506172    57.014981    58.324685    187904.54 
    7000    299.61526   -19566.943    1404.3882    1414.2041    1410.8173    1388.1432    52.320398    25.376073   -278.13183    56.505364    57.014181    58.325929    187903.22 
    7020    299.61526    -19567.16    1485.8645    1499.3378    1496.2737     1461.982    52.404945    25.335556   -277.87355    56.500607    57.009393    58.323486    187863.76 
    7040    299.61526   -19567.346    1438.8478     1437.285    1433.4508    1445.8075    52.375539    25.315043   -277.67362    56.505003    57.014011    58.320677    187884.54 
    7060    299.61526   -19567.498    1390.2192    1394.9628    1391.3158     1384.379    52.363618     25.23702   -277.40524     56.50651     57.01557    58.323535     187903.9 
    7080    299.61526   -19567.732    1447.4566     1444.679    1440.8067    1456.8842    52.418992    25.219906   -277.16414    56.504538    57.013682    58.318979    187876.44 
    7100    299.61526   -19567.857    1411.9099    1410.2663    1406.3614    1419.1021    52.410405     25.16725   -276.96635    56.506119    57.015335    58.320126    187890.84 
    7120    299.61526   -19568.138    1496.2081    1496.0811    1492.4737    1500.0695    52.497466    25.125378   -276.62905    56.501483      57.0107    58.316861    187849.63 
    7140    299.61526   -19568.374    1510.9982    1531.5034    1528.9149    1472.5763    52.548054    25.015657   -276.21696    56.497719    57.006849    58.321026    187837.85 
    7160    299.61526   -19568.539    1513.9225    1504.3631    1500.3453     1537.059    52.539599    25.068585   -276.15687    56.501696    57.011117    58.312683    187838.26 
    7180    299.61526   -19568.796    1415.0589    1422.4758    1418.9848    1403.7161    52.501927    24.946067   -275.67928    56.504203    57.013689    58.319705    187877.69 
    7200    299.61526   -19569.009    1448.7357    1454.9295    1451.4626    1439.8149    52.547369    24.912088   -275.41477    56.502553    57.012093    58.317636    187860.28 
    7220    299.61526    -19569.32    1541.3626    1536.8858    1533.1915    1554.0105    52.641505    24.897381   -275.08905    56.499184    57.008818     58.31085    187816.44 
    7240    299.61526   -19570.297     1527.557    1530.6304    1527.2404    1524.8003    52.754273     24.69725   -273.71073    56.498319     57.00826     58.31049    187810.56 
    7260    299.61526   -19570.563    1450.4006    1446.3895    1442.4623      1462.35     52.73833    24.659108   -273.34429    56.503091    57.013261    58.310516    187842.98 
    7280    299.61526   -19570.715    1434.4368    1432.5949    1428.7295     1441.986    52.755664    24.620156   -273.11458    56.503517    57.013742    58.311185    187848.14 
    7300    299.61526   -19570.867    1562.2245     1565.718    1562.4173    1558.5382    52.882494    24.601031    -272.9371    56.496195    57.006313    58.307792    187788.39 
    7320    299.61526   -19571.088    1505.5186    1507.7562    1504.3339    1504.4657    52.883025    24.552613   -272.59848    56.499134    57.009385    58.308771    187811.43 
    7340    299.61526   -19571.344    1448.8052    1442.6716    1438.6205    1465.1235    52.879977    24.518355   -272.26418    56.503049    57.013535    58.307787    187834.95 
    7360    299.61526   -19571.608    1528.9387    1521.8308    1518.0797    1546.9055    52.986997    24.498151   -271.93195    56.498968    57.009466    58.304081    187796.05 
    7380    299.61526   -19571.814    1482.5438    1489.0768    1485.6955    1472.8593    53.003067    24.427335   -271.57662    56.499297    57.009843    58.308575    187812.86 
    7400    299.61526    -19571.98    1445.6665    1450.6515    1447.0729    1439.2752    53.004429    24.408847   -271.35095    56.501298     57.01196    58.308951    187827.69 
    7420    299.61526   -19573.151    1394.0195    1403.6806    1400.0604    1378.3174    53.236118    24.292335   -269.73882    56.502608    57.013792    58.308543    187836.77 
    7440    299.61526   -19573.575    1439.4463    1450.9538    1447.7063    1419.6789    53.354526     24.29714   -269.16568    56.499792    57.011087    58.306278     187811.2 
    7460    299.61526    -19573.74    1527.6539    1543.4338    1540.8835    1498.6446    53.464857    24.310913   -268.93999     56.49461    57.005836    58.303936    187769.14 
    7480    299.61526   -19573.876    1445.8411     1456.842    1453.6028    1427.0784    53.430625    24.294404   -268.75076    56.499359    57.010788    58.305065    187804.87 
    7500    299.61526   -19574.054      1533.27    1520.7501    1516.5918     1562.468    53.532755     24.36354   -268.68003    56.498105    57.009724     58.29549    187766.36 
    7520    299.61526   -19574.376    1515.8844    1524.4062    1521.4022    1501.8449    53.614918    24.308149   -268.08943    56.495847    57.007444    58.300622    187767.87 
    7540    299.61526   -19574.737    1377.5299    1381.6681    1377.5694    1373.3522    53.609756     24.26349   -267.58184    56.503286    57.015274    58.303091    187826.35 
    7560    299.61526   -19574.872    1447.7447    1434.5422    1430.5541    1478.1379    53.687669    24.326566   -267.40926    56.502071    57.014075    58.295915    187795.24 
    7580    299.61526   -19575.406    1551.8872    1552.2461    1549.0094     1554.406    53.891596    24.283883   -266.69921    56.494529    57.006651    58.294323    187740.59 
    7600    299.61526   -19576.328      1448.65    1453.3331    1449.6663    1442.9504     54.05613    24.185906   -265.35996    56.498601    57.011296    58.296239    187775.59 
    7620    299.61526   -19576.647    1413.0604      1416.03    1412.0038    1411.1476    54.128545    24.175993   -264.90939    56.500449    57.013378     58.29606    187788.02 
    7640    299.61526    -19576.84    1508.7575    1522.4542    1519.9127    1483.9057    54.185124    24.154907   -264.56358    56.493937    57.006722    58.295114    187741.41 
    7660    299.61526   -19576.991    1539.4164    1528.6575    1524.6232    1564.9686    54.253452    24.202567   -264.51992    56.495708    57.008794    58.287251    187728.79 
    7680    299.61526   -19577.093    1460.6162    1463.6256    1459.9556    1458.2673    54.239303    24.170574   -264.26867    56.497726    57.010828     58.29319    187761.32 
    7700    299.61526   -19577.582    1557.3939     1556.228    1553.0546    1562.8991    54.377033    24.175789   -263.59068    56.493055    57.006334    58.287453    187712.52 
    7720    299.61526   -19578.709    1461.6888    1479.7079    1476.9843    1428.3742    54.571472     24.16872   -261.77418    56.494479    57.008358     58.29237    187739.76 
    7740    299.61526   -19578.874    1517.6923    1530.0513     1505.914    1517.1115    54.655608    24.180763   -264.39386    56.492063    57.009529    58.285832    187714.53 
    7760    299.61526   -19579.142    1408.1317    1408.0901      1408.25     1408.055    54.657649    24.236836   -260.62155    56.499502     57.01315    58.288751    187760.57 
    7780    299.61526   -19579.445    1507.2989     1501.396    1524.0891    1496.4117    54.744859     24.23345   -257.30209    56.495294    57.005439    58.285825    187711.77 
    7800    299.61526   -19579.843    1464.0751    1501.8674    1439.9849    1450.3729    54.827908    24.289445   -267.83775    56.490096     57.01435    58.286542    187726.15 
    7820    299.61526    -19580.05    1496.4129    1496.1869    1492.0117      1501.04    54.877644    24.304939   -259.88957    56.494313    57.009225    58.282494    187710.25 
    7840    299.61526   -19580.218    1521.9765    1521.0698    1525.8878     1518.972    54.913743    24.316446   -258.47552    56.493079     57.00663     58.28209    187696.31 
    7860    299.61526   -19580.386    1438.5142    1433.1913    1428.6341    1453.7171    54.914437    24.372531   -259.31613    56.497746    57.012924    58.282172    187732.81 
    7880    299.61526   -19580.505    1478.6734    1486.2443    1483.1179    1466.6579    54.944393    24.370166   -259.02272    56.493795    57.008834    58.283889    187711.74 
    7900    299.61526   -19580.633    1419.2143    1437.6093    1434.8162    1385.2174      54.9175    24.424619   -258.70662    56.495214    57.010293    58.288344    187735.61 
    7920    299.61526   -19580.771    1371.0298    1379.9115    1375.8915    1357.2863    54.923583     24.46634   -258.54934    56.498912    57.014265    58.287038    187756.77 
    7940    299.61526   -19581.142    1535.6537    1536.0984    1532.9981    1537.8648    55.096339    24.423201   -258.05448    56.491413    57.006856    58.278283    187679.26 
    7960    299.61526   -19581.225    1447.1125    1434.3382    1428.9713     1478.028    55.081901    24.470111   -258.05305    56.497727    57.013567    58.277456    187719.67 
    7980    299.61526   -19581.329     1486.907    1506.2282    1504.3316    1450.1612    55.087007    24.469704   -257.54217    56.491106    57.006504    58.284338    187696.58 
    8000    299.61526   -19581.457    1402.4672    1413.3388    1409.7213    1384.3413    55.076761    24.539036   -257.40799    56.496507    57.012249    58.284518    187734.02 
    8020    299.61526   -19581.773    1404.9447    1406.0622    1401.5548     1407.217    55.159344    24.568757   -256.97876    56.497508    57.013594    58.280933    187730.23 
    8040    299.61526   -19582.287    1519.4593    1525.2438    1521.1333    1512.0007    55.320768    24.561792   -256.25063    56.490586    57.006985    58.276733    187671.94 
    8060    299.61526   -19582.698    1501.8358    1525.0976    1492.7775    1487.6322     55.39944    24.610687   -259.26415    56.488368    57.009691    58.277008    187674.37 
    8080    299.61526   -19582.935    1531.3299    1538.7024    1532.5257    1522.7615    55.454836    24.620354   -255.43279    56.489209    57.006415     58.27458    187658.56 
    8100    299.61526   -19583.115    1550.4388    1543.4391    1541.5912    1566.2861     55.51856    24.622652   -254.55764    56.490168    57.006775    58.270319    187649.21 
    8120    299.61526   -19583.305    1479.9306     1493.599    1490.6182    1455.5747    55.505987    24.673025   -254.29319    56.490684     57.00764    58.277265    187676.14 
    8140    299.61526   -19583.423    1561.7063    1556.2614    1552.8646    1575.9929    55.593241    24.636305   -254.24284    56.489101    57.006191    58.269234    187640.25 
    8160    299.61526   -19583.549    1500.9921    1487.3658    1482.5815    1533.0289     55.60885    24.671665   -254.08387     56.49325    57.010635    58.268709    187666.97 
    8180    299.61526   -19583.702    1467.0185    1481.2779    1478.7329    1441.0448    55.591834    24.708792   -253.50789    56.490939    57.008117     58.27676    187676.93 
    8200    299.61526   -19583.826    1436.5215    1444.7621    1441.2577    1423.5448    55.619692    24.726313   -253.34938     56.49324    57.010653    58.275803    187689.84 
    8220    299.61526   -19583.922    1498.5742    1487.7365    1483.0668    1524.9192    55.695402    24.696987   -253.40445    56.492671    57.010321    58.268426     187663.1 
    8240    299.61526   -19584.053    1497.7545    1515.7432    1513.9137    1463.6066    55.678849    24.707593   -252.84549    56.488551    57.005887    58.275716    187658.29 
    8260    299.61526   -19584.214    1429.6083    1438.7395    1435.2068    1414.8786    55.713117    24.745369   -252.65553    56.493142    57.010853    58.275136    187688.02 
    8280    299.61526   -19584.499    1506.4606    1518.3263    1515.4645    1485.5909    55.793068    24.728275   -252.18537    56.488583    57.006416    58.272444     187649.6 
    8300    299.61526    -19584.57    1580.8948    1568.2214    1564.4128    1610.0502    55.862552    24.721901   -252.26969    56.488173    57.006183    58.263369    187618.25 
    8320    299.61526   -19584.659     1456.538    1445.2429    1440.0661    1484.3051    55.851728    24.769428    -252.0754    56.494259    57.012545    58.267551    187672.88 
    8340    299.61526   -19584.751    1416.5945    1417.9428    1413.5427    1418.2979    55.845379    24.777549   -251.74962    56.494444    57.012692     58.27195    187688.14 
    8360    299.61526   -19584.892    1490.2445     1470.868    1465.0804    1534.7851    55.928218    24.781108   -251.78077    56.493468    57.012024    58.263602    187655.81 
    8380    299.61526   -19585.045    1522.5099    1512.1133    1507.8407    1547.5756    55.963352    24.780637   -251.36881    56.490425    57.008871    58.264516    187638.27 
    8400    299.61526   -19585.199    1446.8407    1464.1711    1462.4985    1413.8525    55.944292    24.791133   -250.64004    56.490265    57.008448    58.274007    187666.92 
    8420    299.61526   -19585.423    1479.0701    1474.1555    1469.9536    1493.1013    56.037737    24.809338   -250.58749    56.491541    57.010276     58.26631    187652.38 
    8440    299.61526   -19585.543    1471.8238    1472.0906    1468.1791    1475.2018     56.05804    24.817826   -250.31918    56.491074    57.009865     58.26756     187653.5 
    8460    299.61526   -19586.083    1459.2192    1467.6322    1464.2713     1445.754    56.175849    24.859199   -249.22608    56.490084    57.009234     58.26856    187651.36 
    8480    299.61526   -19586.487    1445.5909    1461.5317    1455.8287    1419.4124    56.256362    24.905199    -248.7603    56.489316    57.009191    58.269479    187651.63 
    8500    299.61526   -19586.878    1504.4601    1507.1194    1502.4255    1503.8355    56.404473    24.917188   -247.97222    56.487826    57.007848    58.263101    187621.72 
    8520    299.61526   -19587.074    1571.7179    1577.0727    1574.2077    1563.8733    56.490412    24.909638   -247.48529    56.483826    57.003743     58.26114    187588.61 
    8540    299.61526   -19587.382    1368.0378    1361.9226    1356.1303    1386.0606     56.42291    25.027738   -246.84436     56.49558    57.016157    58.263983    187677.66 
    8560    299.61526   -19587.477    1430.3015    1424.2945     1419.132    1447.4781    56.495457    25.005601     -246.709    56.492285    57.012853     58.26168    187648.42 
    8580    299.61526   -19587.606    1472.2706    1493.4696     1491.884    1431.4582    56.545621    24.989952   -246.10135     56.48618    57.006348    58.267203    187624.52 
    8600    299.61526   -19587.716    1442.9032    1460.9167    1458.5802    1409.2127    56.549102    25.014497   -245.91203    56.488024    57.008394       58.267    187636.72 
    8620    299.61526    -19587.85    1430.2624    1444.1386    1441.2153    1405.4333    56.568197    25.030893   -245.68656    56.489123     57.00969    58.265931     187641.2 
    8640    299.61526       -19588     1488.067    1507.6603    1502.1045    1454.4361    56.651529    25.011315   -245.86436    56.485166    57.006323    58.264627    187612.78 
    8660    299.61526   -19588.142    1367.9475    1423.0198    1352.5576    1328.2652    56.572901    25.051494   -253.88704    56.485416    57.017353     58.26916    187664.51 
    8680    299.61526   -19588.294    1468.4631    1471.9515     1466.095     1467.343    56.711074     25.03799   -245.25164    56.488165    57.009583    58.260352     187619.7 
[...]
   40771    299.61526   -19636.672    1489.1417    1491.2653    1487.8596    1488.3002    20.397309    8.8778279   -46.437548    56.327101    56.910401    58.223703    186641.78 
Loop time of 2.99656 on 72 procs for 102 steps with 6720 atoms

100.0% CPU use with 72 MPI tasks x 1 OpenMP threads

Minimization stats:
  Stopping criterion = energy tolerance
  Energy initial, next-to-last, final = 
        -19636.6724421     -19636.6724447     -19636.6724447
  Force two-norm initial, final = 0.00346794 9.56671e-06
  Force max component initial, final = 0.000114181 6.26376e-07
  Final line search alpha, max atom move = 1 6.26376e-07
  Iterations, force evaluations = 102 204

MPI task timing breakdown:
Section |  min time  |  avg time  |  max time  |%varavg| %total
---------------------------------------------------------------
Pair    | 1.8166     | 2.5298     | 2.9851     |  16.5 | 84.42
Neigh   | 0          | 0          | 0          |   0.0 |  0.00
Comm    | 0.0061373  | 0.41971    | 1.127      |  41.9 | 14.01
Output  | 0.00017075 | 0.00017968 | 0.0002172  |   0.0 |  0.01
Modify  | 0          | 0          | 0          |   0.0 |  0.00
Other   |            | 0.04685    |            |       |  1.56

Nlocal:    93.3333 ave 107 max 78 min
Histogram: 6 5 7 4 5 10 11 13 9 2
Nghost:    495.5 ave 541 max 458 min
Histogram: 3 3 12 12 11 15 8 6 1 1
Neighs:    0 ave 0 max 0 min
Histogram: 72 0 0 0 0 0 0 0 0 0
FullNghs:  2873.06 ave 3317 max 2374 min
Histogram: 5 6 7 3 6 15 6 13 9 2

Total # of neighbors = 206860
Ave neighs/atom = 30.7827
Neighbor list builds = 0
Dangerous builds = 0

# Obtain new stress tensor

variable tmp equal pxx
variable pxx1 equal ${tmp}
variable pxx1 equal 1491.26534978784
variable tmp equal pyy
variable pyy1 equal ${tmp}
variable pyy1 equal 1487.85961146228
variable tmp equal pzz
variable pzz1 equal ${tmp}
variable pzz1 equal 1488.30016660313
variable tmp equal pxy
variable pxy1 equal ${tmp}
variable pxy1 equal 20.3973085552391
variable tmp equal pxz
variable pxz1 equal ${tmp}
variable pxz1 equal 8.87782791821949
variable tmp equal pyz
variable pyz1 equal ${tmp}
variable pyz1 equal -46.437547950103

# Compute elastic constant from pressure tensor

variable C1neg equal ${d1}
variable C1neg equal -12.7558269959991
variable C2neg equal ${d2}
variable C2neg equal 6.83315503501944
variable C3neg equal ${d3}
variable C3neg equal -1.88944384199203
variable C4neg equal ${d4}
variable C4neg equal 1.73293131446997
variable C5neg equal ${d5}
variable C5neg equal 2.32190292758503
variable C6neg equal ${d6}
variable C6neg equal 7.00220870974988

# Reset box and simulation parameters

clear
OMP_NUM_THREADS environment is not set. Defaulting to 1 thread. (../comm.cpp:87)
  using 1 OpenMP thread(s) per MPI task
box tilt large
read_restart restart.equil
  restoring atom style atomic from restart
  orthogonal box = (0.153449 0.15485 0.671749) to (56.4805 57.0653 58.8955)
  3 by 4 by 6 MPI processor grid
  pair style mlip stores no restart info
  6720 atoms
include potential.mod
#NOTE: This script can be modified for different pair styles
# See in.elastic for more info.

# Choose potential
pair_style  mlip mlip.ini
pair_coeff      * *

# Setup neighbor style
neighbor 1.0 nsq
neigh_modify once no every 1 delay 0 check yes

# Setup minimization style
min_style            cg
min_modify           dmax ${dmax} line quadratic
min_modify           dmax 0.01 line quadratic

# Setup output
thermo          20
thermo_style custom step temp pe press pxx pyy pzz pxy pxz pyz lx ly lz vol
thermo_modify norm no


# Positive deformation

variable delta equal ${up}*${len0}
variable delta equal 1e-06*${len0}
variable delta equal 1e-06*56.9104007004759
variable deltaxy equal ${up}*xy
variable deltaxy equal 1e-06*xy
variable deltaxz equal ${up}*xz
variable deltaxz equal 1e-06*xz
variable deltayz equal ${up}*yz
variable deltayz equal 1e-06*yz
change_box all triclinic
  triclinic box = (0.153449 0.15485 0.671749) to (56.4805 57.0653 58.8955) with tilt (0 0 0)
if "${dir} == 1" then    "change_box all x delta 0 ${delta} xy delta ${deltaxy} xz delta ${deltaxz} remap units box"
if "${dir} == 2" then    "change_box all y delta 0 ${delta} yz delta ${deltayz} remap units box"
if "${dir} == 3" then    "change_box all z delta 0 ${delta} remap units box"
if "${dir} == 4" then    "change_box all yz delta ${delta} remap units box"
if "${dir} == 5" then    "change_box all xz delta ${delta} remap units box"
if "${dir} == 6" then    "change_box all xy delta ${delta} remap units box"
change_box all xy delta ${delta} remap units box
change_box all xy delta 5.69104007004759e-05 remap units box
  triclinic box = (0.153449 0.15485 0.671749) to (56.4805 57.0653 58.8955) with tilt (5.69104e-05 0 0)

# Relax atoms positions

minimize ${etol} ${ftol} ${maxiter} ${maxeval}
minimize 1e-15 ${ftol} ${maxiter} ${maxeval}
minimize 1e-15 1e-10 ${maxiter} ${maxeval}
minimize 1e-15 1e-10 400000 ${maxeval}
minimize 1e-15 1e-10 400000 400000
Neighbor list info ...
  update every 1 steps, delay 0 steps, check yes
  max neighbors/atom: 2000, page size: 100000
  master list distance cutoff = 5.8
  ghost atom cutoff = 5.8
  1 neighbor lists, perpetual/occasional/extra = 1 0 0
  (1) pair mlip, perpetual
      attributes: full, newton on
      pair build: full/nsq
      stencil: none
      bin: none
Per MPI rank memory allocation (min/avg/max) = 3.805 | 3.845 | 4.183 Mbytes
Step Temp PotEng Press Pxx Pyy Pzz Pxy Pxz Pyz Lx Ly Lz Volume 
   40669    299.61526   -19636.672    1489.1669    1491.3747    1487.8049    1488.3212    20.144181    8.8954641   -46.447342    56.327101    56.910401    58.223703    186641.78 
   40680    299.61526   -19636.672    1489.1544    1491.3479    1487.8004    1488.3148    20.312972    8.8196856   -46.448291    56.327101    56.910401    58.223703    186641.78 
   40700    299.61526   -19636.672    1489.1396    1491.3111    1487.8046    1488.3031    20.309915    8.8163748   -46.430998    56.327101    56.910401    58.223703    186641.78 
   40720    299.61526   -19636.672    1489.1417    1491.2921     1487.836    1488.2969     20.31284    8.8302448   -46.426817    56.327101    56.910401    58.223703    186641.78 
   40740    299.61526   -19636.672    1489.1472     1491.281    1487.8635    1488.2972     20.31372     8.832176    -46.43435    56.327101    56.910401    58.223703    186641.78 
   40760    299.61526   -19636.672    1489.1444    1491.2697    1487.8638    1488.2996    20.309719    8.8320154   -46.436892    56.327101    56.910401    58.223703    186641.78 
   40771    299.61526   -19636.672    1489.1435    1491.2675    1487.8634    1488.2997    20.308949     8.832469   -46.436644    56.327101    56.910401    58.223703    186641.78 
Loop time of 3.00244 on 72 procs for 102 steps with 6720 atoms

100.0% CPU use with 72 MPI tasks x 1 OpenMP threads

Minimization stats:
  Stopping criterion = energy tolerance
  Energy initial, next-to-last, final = 
        -19636.6724394     -19636.6724421     -19636.6724421
  Force two-norm initial, final = 0.00347106 9.66041e-06
  Force max component initial, final = 0.000120037 6.41489e-07
  Final line search alpha, max atom move = 1 6.41489e-07
  Iterations, force evaluations = 102 204

MPI task timing breakdown:
Section |  min time  |  avg time  |  max time  |%varavg| %total
---------------------------------------------------------------
Pair    | 1.8138     | 2.5294     | 2.9833     |  16.5 | 84.24
Neigh   | 0          | 0          | 0          |   0.0 |  0.00
Comm    | 0.0064763  | 0.42127    | 1.1352     |  41.8 | 14.03
Output  | 0.00016912 | 0.00017975 | 0.00021865 |   0.0 |  0.01
Modify  | 0          | 0          | 0          |   0.0 |  0.00
Other   |            | 0.0516     |            |       |  1.72

Nlocal:    93.3333 ave 107 max 78 min
Histogram: 6 5 7 4 5 10 11 13 9 2
Nghost:    495.5 ave 541 max 458 min
Histogram: 3 3 12 12 11 15 8 6 1 1
Neighs:    0 ave 0 max 0 min
Histogram: 72 0 0 0 0 0 0 0 0 0
FullNghs:  2873.06 ave 3317 max 2374 min
Histogram: 5 6 7 3 6 15 6 13 9 2

Total # of neighbors = 206860
Ave neighs/atom = 30.7827
Neighbor list builds = 0
Dangerous builds = 0

# Obtain new stress tensor

variable tmp equal pe
variable e1 equal ${tmp}
variable e1 equal -19636.6724420543
variable tmp equal press
variable p1 equal ${tmp}
variable p1 equal 1489.1435354627
variable tmp equal pxx
variable pxx1 equal ${tmp}
variable pxx1 equal 1491.26754842702
variable tmp equal pyy
variable pyy1 equal ${tmp}
variable pyy1 equal 1487.86337804721
variable tmp equal pzz
variable pzz1 equal ${tmp}
variable pzz1 equal 1488.29967991388
variable tmp equal pxy
variable pxy1 equal ${tmp}
variable pxy1 equal 20.3089492529408
variable tmp equal pxz
variable pxz1 equal ${tmp}
variable pxz1 equal 8.83246900658953
variable tmp equal pyz
variable pyz1 equal ${tmp}
variable pyz1 equal -46.4366439028047

# Compute elastic constant from pressure tensor

variable C1pos equal ${d1}
variable C1pos equal 12.535963077994
variable C2pos equal ${d2}
variable C2pos equal -7.20981352801573
variable C3pos equal ${d3}
variable C3pos equal 1.93811276699307
variable C4pos equal ${d4}
variable C4pos equal -1.82333604430056
variable C5pos equal ${d5}
variable C5pos equal 2.2139882354109
variable C6pos equal ${d6}
variable C6pos equal 1.83372152008019

# Combine positive and negative

variable C1${dir} equal 0.5*(${C1neg}+${C1pos})
variable C16 equal 0.5*(${C1neg}+${C1pos})
variable C16 equal 0.5*(-12.7558269959991+${C1pos})
variable C16 equal 0.5*(-12.7558269959991+12.535963077994)
variable C2${dir} equal 0.5*(${C2neg}+${C2pos})
variable C26 equal 0.5*(${C2neg}+${C2pos})
variable C26 equal 0.5*(6.83315503501944+${C2pos})
variable C26 equal 0.5*(6.83315503501944+-7.20981352801573)
variable C3${dir} equal 0.5*(${C3neg}+${C3pos})
variable C36 equal 0.5*(${C3neg}+${C3pos})
variable C36 equal 0.5*(-1.88944384199203+${C3pos})
variable C36 equal 0.5*(-1.88944384199203+1.93811276699307)
variable C4${dir} equal 0.5*(${C4neg}+${C4pos})
variable C46 equal 0.5*(${C4neg}+${C4pos})
variable C46 equal 0.5*(1.73293131446997+${C4pos})
variable C46 equal 0.5*(1.73293131446997+-1.82333604430056)
variable C5${dir} equal 0.5*(${C5neg}+${C5pos})
variable C56 equal 0.5*(${C5neg}+${C5pos})
variable C56 equal 0.5*(2.32190292758503+${C5pos})
variable C56 equal 0.5*(2.32190292758503+2.2139882354109)
variable C6${dir} equal 0.5*(${C6neg}+${C6pos})
variable C66 equal 0.5*(${C6neg}+${C6pos})
variable C66 equal 0.5*(7.00220870974988+${C6pos})
variable C66 equal 0.5*(7.00220870974988+1.83372152008019)

# Delete dir to make sure it is not reused

variable dir delete

# Output final values
variable C11all equal ${C11}
variable C11all equal 43.0330997305078
variable C22all equal ${C22}
variable C22all equal 43.9320077025058
variable C33all equal ${C33}
variable C33all equal 63.7214067830086

variable C12all equal 0.5*(${C12}+${C21})
variable C12all equal 0.5*(35.4248779960017+${C21})
variable C12all equal 0.5*(35.4248779960017+35.3962372269961)
variable C13all equal 0.5*(${C13}+${C31})
variable C13all equal 0.5*(30.2846379939979+${C31})
variable C13all equal 0.5*(30.2846379939979+30.2864473574914)
variable C23all equal 0.5*(${C23}+${C32})
variable C23all equal 0.5*(30.2054150140066+${C32})
variable C23all equal 0.5*(30.2054150140066+30.2018404240016)

variable C44all equal ${C44}
variable C44all equal 11.0447188400048
variable C55all equal ${C55}
variable C55all equal 11.2888432626826
variable C66all equal ${C66}
variable C66all equal 4.41796511491503

variable C14all equal 0.5*(${C14}+${C41})
variable C14all equal 0.5*(2.0341071029975+${C41})
variable C14all equal 0.5*(2.0341071029975+2.02603613547012)
variable C15all equal 0.5*(${C15}+${C51})
variable C15all equal 0.5*(0.0851595135031502+${C51})
variable C15all equal 0.5*(0.0851595135031502+0.0851674992699891)
variable C16all equal 0.5*(${C16}+${C61})
variable C16all equal 0.5*(-0.109931959002551+${C61})
variable C16all equal 0.5*(-0.109931959002551+-0.11283558453492)

variable C24all equal 0.5*(${C24}+${C42})
variable C24all equal 0.5*(-2.15839824400064+${C42})
variable C24all equal 0.5*(-2.15839824400064+-2.17039965738514)
variable C25all equal 0.5*(${C25}+${C52})
variable C25all equal 0.5*(-0.0318685109959902+${C52})
variable C25all equal 0.5*(-0.0318685109959902+-0.0369921939640249)
variable C26all equal 0.5*(${C26}+${C62})
variable C26all equal 0.5*(-0.188329246498145+${C62})
variable C26all equal 0.5*(-0.188329246498145+-0.182977505039975)

variable C34all equal 0.5*(${C34}+${C43})
variable C34all equal 0.5*(0.00636956150401502+${C43})
variable C34all equal 0.5*(0.00636956150401502+0.00177600946998002)
variable C35all equal 0.5*(${C35}+${C53})
variable C35all equal 0.5*(0.00158241200552001+${C53})
variable C35all equal 0.5*(0.00158241200552001+0.0013172461049926)
variable C36all equal 0.5*(${C36}+${C63})
variable C36all equal 0.5*(0.02433446250052+${C63})
variable C36all equal 0.5*(0.02433446250052+0.02679230900497)

variable C45all equal 0.5*(${C45}+${C54})
variable C45all equal 0.5*(-0.0561387742049401+${C54})
variable C45all equal 0.5*(-0.0561387742049401+-0.0581417997169707)
variable C46all equal 0.5*(${C46}+${C64})
variable C46all equal 0.5*(-0.0452023649152949+${C64})
variable C46all equal 0.5*(-0.0452023649152949+-0.0442512740599801)
variable C56all equal 0.5*(${C56}+${C65})
variable C56all equal 0.5*(2.26794558149796+${C65})
variable C56all equal 0.5*(2.26794558149796+2.26983657833007)

# Average moduli for cubic crystals

variable C11cubic equal (${C11all}+${C22all}+${C33all})/3.0
variable C11cubic equal (43.0330997305078+${C22all}+${C33all})/3.0
variable C11cubic equal (43.0330997305078+43.9320077025058+${C33all})/3.0
variable C11cubic equal (43.0330997305078+43.9320077025058+63.7214067830086)/3.0
variable C12cubic equal (${C12all}+${C13all}+${C23all})/3.0
variable C12cubic equal (35.4105576114989+${C13all}+${C23all})/3.0
variable C12cubic equal (35.4105576114989+30.2855426757447+${C23all})/3.0
variable C12cubic equal (35.4105576114989+30.2855426757447+30.2036277190041)/3.0
variable C44cubic equal (${C44all}+${C55all}+${C66all})/3.0
variable C44cubic equal (11.0447188400048+${C55all}+${C66all})/3.0
variable C44cubic equal (11.0447188400048+11.2888432626826+${C66all})/3.0
variable C44cubic equal (11.0447188400048+11.2888432626826+4.41796511491503)/3.0

variable bulkmodulus equal (${C11cubic}+2*${C12cubic})/3.0
variable bulkmodulus equal (50.2288380720074+2*${C12cubic})/3.0
variable bulkmodulus equal (50.2288380720074+2*31.9665760020826)/3.0
variable shearmodulus1 equal ${C44cubic}
variable shearmodulus1 equal 8.91717573920081
variable shearmodulus2 equal (${C11cubic}-${C12cubic})/2.0
variable shearmodulus2 equal (50.2288380720074-${C12cubic})/2.0
variable shearmodulus2 equal (50.2288380720074-31.9665760020826)/2.0
variable poissonratio equal 1.0/(1.0+${C11cubic}/${C12cubic})
variable poissonratio equal 1.0/(1.0+50.2288380720074/${C12cubic})
variable poissonratio equal 1.0/(1.0+50.2288380720074/31.9665760020826)

print "${C11cubic} ${C12cubic} ${C44cubic} ${bulkmodulus} ${shearmodulus1} ${shearmodulus2} ${poissonratio}" file cubic.txt
50.2288380720074 31.9665760020826 8.91717573920081 38.0539966920575 8.91717573920081 9.1311310349624 0.388909483116276
print "${C11all} ${C12all} ${C44all}" file elastic.txt
43.0330997305078 35.4105576114989 11.0447188400048
print "========================================="
=========================================
print "Components of the Elastic Constant Tensor"
Components of the Elastic Constant Tensor
print "========================================="
=========================================

print "Elastic Constant C11all = ${C11all} ${cunits}"
Elastic Constant C11all = 43.0330997305078 GPa
print "Elastic Constant C22all = ${C22all} ${cunits}"
Elastic Constant C22all = 43.9320077025058 GPa
print "Elastic Constant C33all = ${C33all} ${cunits}"
Elastic Constant C33all = 63.7214067830086 GPa

print "Elastic Constant C12all = ${C12all} ${cunits}"
Elastic Constant C12all = 35.4105576114989 GPa
print "Elastic Constant C13all = ${C13all} ${cunits}"
Elastic Constant C13all = 30.2855426757447 GPa
print "Elastic Constant C23all = ${C23all} ${cunits}"
Elastic Constant C23all = 30.2036277190041 GPa

print "Elastic Constant C44all = ${C44all} ${cunits}"
Elastic Constant C44all = 11.0447188400048 GPa
print "Elastic Constant C55all = ${C55all} ${cunits}"
Elastic Constant C55all = 11.2888432626826 GPa
print "Elastic Constant C66all = ${C66all} ${cunits}"
Elastic Constant C66all = 4.41796511491503 GPa

print "Elastic Constant C14all = ${C14all} ${cunits}"
Elastic Constant C14all = 2.03007161923381 GPa
print "Elastic Constant C15all = ${C15all} ${cunits}"
Elastic Constant C15all = 0.0851635063865696 GPa
print "Elastic Constant C16all = ${C16all} ${cunits}"
Elastic Constant C16all = -0.111383771768735 GPa

print "Elastic Constant C24all = ${C24all} ${cunits}"
Elastic Constant C24all = -2.16439895069289 GPa
print "Elastic Constant C25all = ${C25all} ${cunits}"
Elastic Constant C25all = -0.0344303524800076 GPa
print "Elastic Constant C26all = ${C26all} ${cunits}"
Elastic Constant C26all = -0.18565337576906 GPa

print "Elastic Constant C34all = ${C34all} ${cunits}"
Elastic Constant C34all = 0.00407278548699752 GPa
print "Elastic Constant C35all = ${C35all} ${cunits}"
Elastic Constant C35all = 0.0014498290552563 GPa
print "Elastic Constant C36all = ${C36all} ${cunits}"
Elastic Constant C36all = 0.025563385752745 GPa

print "Elastic Constant C45all = ${C45all} ${cunits}"
Elastic Constant C45all = -0.0571402869609554 GPa
print "Elastic Constant C46all = ${C46all} ${cunits}"
Elastic Constant C46all = -0.0447268194876375 GPa
print "Elastic Constant C56all = ${C56all} ${cunits}"
Elastic Constant C56all = 2.26889107991401 GPa

print "${C11all} ${C12all} ${C13all} ${C14all} ${C15all} ${C16all}"
43.0330997305078 35.4105576114989 30.2855426757447 2.03007161923381 0.0851635063865696 -0.111383771768735
print "${C12all} ${C22all} ${C23all} ${C24all} ${C25all} ${C26all}"
35.4105576114989 43.9320077025058 30.2036277190041 -2.16439895069289 -0.0344303524800076 -0.18565337576906
print "${C13all} ${C23all} ${C33all} ${C34all} ${C35all} ${C36all}"
30.2855426757447 30.2036277190041 63.7214067830086 0.00407278548699752 0.0014498290552563 0.025563385752745
print "${C14all} ${C24all} ${C34all} ${C44all} ${C45all} ${C46all}"
2.03007161923381 -2.16439895069289 0.00407278548699752 11.0447188400048 -0.0571402869609554 -0.0447268194876375
print "${C15all} ${C25all} ${C35all} ${C45all} ${C55all} ${C56all}"
0.0851635063865696 -0.0344303524800076 0.0014498290552563 -0.0571402869609554 11.2888432626826 2.26889107991401
print "${C16all} ${C26all} ${C36all} ${C46all} ${C56all} ${C66all}"
-0.111383771768735 -0.18565337576906 0.025563385752745 -0.0447268194876375 2.26889107991401 4.41796511491503

print """
${C11all} ${C12all} ${C13all} ${C14all} ${C15all} ${C16all}
${C12all} ${C22all} ${C23all} ${C24all} ${C25all} ${C26all}
${C13all} ${C23all} ${C33all} ${C34all} ${C35all} ${C36all}
${C14all} ${C24all} ${C34all} ${C44all} ${C45all} ${C46all}
${C15all} ${C25all} ${C35all} ${C45all} ${C55all} ${C56all}
${C16all} ${C26all} ${C36all} ${C46all} ${C56all} ${C66all}
"""

43.0330997305078 35.4105576114989 30.2855426757447 2.03007161923381 0.0851635063865696 -0.111383771768735
35.4105576114989 43.9320077025058 30.2036277190041 -2.16439895069289 -0.0344303524800076 -0.18565337576906
30.2855426757447 30.2036277190041 63.7214067830086 0.00407278548699752 0.0014498290552563 0.025563385752745
2.03007161923381 -2.16439895069289 0.00407278548699752 11.0447188400048 -0.0571402869609554 -0.0447268194876375
0.0851635063865696 -0.0344303524800076 0.0014498290552563 -0.0571402869609554 11.2888432626826 2.26889107991401
-0.111383771768735 -0.18565337576906 0.025563385752745 -0.0447268194876375 2.26889107991401 4.41796511491503

Total wall time: 0:15:28
