LAMMPS data file via write_data, version 23 Jun 2022, timestep = 106073

11340 atoms
3 atom types

7.151931941682062 39.94576105831713 xlo xhi
-36.47996884364452 0.034383843645029784 ylo yhi
-0.6635536084645381 267.3159093401173 zlo zhi
-7.027190347394085 0 0 xy xz yz

Masses

1 24.305
2 121.76
3 208.9804

Atoms # atomic

1 1 8.642013030243827 -34.44844953976084 4.252677210959181 0 0 0
2 1 8.606552675659168 -34.43756279980332 19.06082269368665 0 0 0
10 1 10.633013063890822 -20.533335086152043 4.18859773127944 0 0 0
11 1 10.697413253758048 -20.455662140839703 19.064462943086976 0 0 0
19 1 12.544639462102587 -6.5700913328864345 4.230035226773657 0 0 0
20 1 12.634047633576063 -6.647249586322655 19.06687548329044 0 0 0
28 1 21.704967878578213 -29.25680021208173 4.160395374455996 0 0 0
29 1 21.705698240141604 -29.17779505770421 19.06917346373961 0 0 0
37 1 23.653401521475615 -15.367729167917819 4.225670268284032 0 0 0
38 1 23.734747696566895 -15.259776800044389 19.072700703863564 0 0 0
46 1 25.71891695488612 -1.3825478218013743 4.3219484180121945 0 -1 0
47 1 25.705724914407714 -1.3766938959089003 19.01844347851978 0 -1 0
55 1 34.7454412478756 -23.948325174154963 4.193531791550633 0 0 0
56 1 34.72967269478041 -24.0205512668936 19.055147517900046 0 0 0
64 1 8.619110976656994 -34.44139378786242 11.662726144015153 0 0 0
65 1 8.606596429230006 -34.42738297622782 26.469059543128505 0 0 0
72 1 10.642692835308484 -20.489394576560205 11.633406698009443 0 0 0
73 1 10.636022687977997 -20.509919897506578 26.47947381621163 0 0 0
80 1 12.682353039333176 -6.549331322389165 11.627858816638463 0 0 0
81 1 12.68125032367767 -6.586132024761685 26.456256375026427 0 0 0
88 1 21.740967922680568 -29.207444175041715 11.652164265164267 0 0 0
89 1 21.67485157869552 -29.13143918588218 26.51875047286182 0 0 0
96 1 23.748422457475787 -15.269564781316806 11.638728315183421 0 0 0
97 1 23.713015039291413 -15.213436137720304 26.518510215580953 0 0 0
104 1 25.688475364072996 -1.3603578700587704 11.62593554135448 0 -1 0
105 1 25.71713837361892 -1.3696467220602244 26.46532504050733 0 -1 0
112 1 34.734592290822725 -24.021451109855178 11.632741801088873 0 0 0
113 1 34.75615689050274 -23.93541034883431 26.51609398685193 0 0 0
120 1 9.266208345721402 -29.790183224097156 4.461530986283545 0 0 0
121 1 9.276461423914938 -29.75416983017613 19.093399396812583 0 0 0
129 1 11.33715054585048 -15.89065020790515 4.202641490669555 0 0 0
130 1 11.420292594040017 -15.878098127485824 19.111556377672038 0 0 0
138 1 13.349801103454052 -1.969500344711058 4.193934598578517 0 -1 0
139 1 13.339942306470018 -2.028430907932872 19.032985660555934 0 -1 0
147 1 22.384341483100577 -24.540951444515176 4.206121264254641 0 0 0
148 1 22.36183904004319 -24.51596580801747 19.08212591919812 0 0 0
156 1 24.340677984551345 -10.739003660467908 4.179594519635444 0 0 0
157 1 24.375962546103423 -10.654892834495598 19.052497400598842 0 0 0
165 1 33.40408956924663 -33.21114326357034 4.20201445033088 0 0 0
166 1 33.45696846922618 -33.25006234093311 19.07348150315256 0 0 0
174 1 35.44247329685067 -19.35974071616707 4.168933638796879 0 0 0
175 1 35.37065836090291 -19.35658898439017 19.015247218703866 0 0 0
183 1 9.300952125076627 -29.776753093727578 11.674736529396531 0 0 0
184 1 9.33725673309252 -29.797632158379614 26.511590459377945 0 0 0
191 1 11.333668450193755 -15.853117503352781 11.608700323939331 0 0 0
192 1 11.332468926894112 -15.855356185168073 26.498942986541373 0 0 0
199 1 13.33513770910145 -2.014929089131563 11.616414059015577 0 -1 0
200 1 13.308660603201073 -1.9586255828961185 26.462911219443896 0 -1 0
207 1 22.345848629571147 -24.487257844739304 11.67343371670126 0 0 0
208 1 22.344099937897465 -24.586793217446974 26.52992071901953 0 0 0
215 1 24.368435564477664 -10.713468415578923 11.58784438130986 0 0 0
216 1 24.402823827254768 -10.676741030745738 26.481178294710585 0 0 0
223 1 33.38948171832816 -33.29999559873271 11.66452482396285 0 0 0
224 1 33.43279162468761 -33.2975768542406 26.48043583796022 0 0 0
231 1 35.378689833694686 -19.353734740375955 11.615767530231423 0 0 0
232 1 35.44138007101994 -19.374904259777164 26.463274873019813 0 0 0
239 1 9.933803340298137 -25.140020890663166 4.211243270683074 0 0 0
240 1 9.985598353341729 -25.073751254323327 19.091968186170067 0 0 0
248 1 11.931560158768114 -11.248573655493068 4.252931869580204 0 0 0
249 1 12.082802086358445 -11.249762347750277 19.10951398907703 0 0 0
257 1 20.990924072237824 -33.784700984085724 4.35499095120937 0 0 0
258 1 21.037046520613128 -33.86311697470695 19.05499152975156 0 0 0
266 1 23.017258219914456 -19.866190704625808 4.225636271310865 0 0 0
267 1 22.99398493485058 -19.899471258882386 19.08095168828081 0 0 0
275 1 25.044512968051503 -6.090040675580283 4.216466883987719 0 -1 0
276 1 25.078222578167004 -6.008131473127058 19.065267646490494 0 -1 0
284 1 34.113450090326545 -28.573769404124356 4.117047645180191 0 0 0
285 1 34.08525867114636 -28.628223868987384 19.117151923668146 0 0 0
293 1 0.9935528964636342 -2.583879012632984 4.221904257457604 0 0 0
294 1 0.8979277189030022 -2.5517173210545963 19.046228315268202 0 0 0
302 1 9.954172120935816 -25.134207000170946 11.666151974835326 0 0 0
303 1 9.97203965323897 -25.13802161144705 26.46868813423822 0 0 0
310 1 11.944171330264382 -11.190726764806357 11.623547602283734 0 0 0
311 1 12.027525382354927 -11.215419397424167 26.487696702896184 0 0 0
318 1 21.06230540321569 -33.88768806217285 11.655955583261138 0 0 0
319 1 20.989991497150175 -33.838146894352434 26.509644678417896 0 0 0
326 1 23.06434878362307 -19.94510091980944 11.649592394964502 0 0 0
327 1 23.031992832643695 -19.938521802913254 26.52104586149504 0 0 0
334 1 25.033067783091937 -6.062261225035279 11.625136373194866 0 -1 0
335 1 25.07109480079788 -5.997079314034124 26.494065483668905 0 -1 0
342 1 34.07806979920199 -28.603480198052736 11.664835871149274 0 0 0
343 1 34.06822131244062 -28.62289036755997 26.51178059710519 0 0 0
350 1 0.9408110915644521 -2.6057024668777444 11.616116412535426 0 0 0
351 1 0.8936762856947187 -2.4957567599506234 26.477815806415403 0 0 0
358 1 5.3543979341417005 -0.7892887018528256 4.257257938693204 0 -1 0
359 1 5.273784919127398 -0.8330453764293466 19.041330909879633 0 -1 0
367 1 14.369162670437815 -23.366693494199897 4.21565555284749 0 0 0
368 1 14.374480355460719 -23.405232977101914 19.054887926092928 0 0 0
376 1 16.31041128134004 -9.482029606455352 4.3915179439976875 0 0 0
377 1 16.337930496063752 -9.426400978923464 19.07947048186206 0 0 0
385 1 25.343969561667247 -32.099369463983265 4.221357186234828 0 0 0
386 1 25.418105313999217 -32.0799920897104 19.074037394331125 0 0 0
394 1 27.351832159232096 -18.22279388586708 4.201965519093774 0 0 0
395 1 27.42282375440493 -18.18492556613321 19.087464385166285 0 0 0
403 1 29.44345238217999 -4.3191242515983035 4.201225005103288 0 -1 0
404 1 29.425741638896152 -4.25338444451333 19.05859875404754 0 -1 0
412 1 3.250304137221996 -14.679931538294703 4.161357970238207 0 0 0
413 1 3.23085812548438 -14.71218357500392 19.075759386665386 0 0 0
421 1 5.315328200588144 -0.8180246529659385 11.624688078965113 0 -1 0
422 1 5.29853900124054 -0.7535053159489564 26.52533450456242 0 -1 0
429 1 14.350058676954113 -23.376589577322985 11.623680729580238 0 0 0
430 1 14.367655425564973 -23.40134703150729 26.514770421696984 0 0 0
437 1 16.35986417910557 -9.491630785662561 11.628888789079058 0 0 0
438 1 16.386340705549085 -9.522459720331916 26.496254052293853 0 0 0
445 1 25.465024918617573 -32.106748449443316 11.66382429714792 0 0 0
446 1 25.365960545796526 -32.085485223464204 26.515043742908542 0 0 0
453 1 27.421643025146423 -18.228809766500678 11.658823362358932 0 0 0
454 1 27.37903521935138 -18.22004464056025 26.51013000769284 0 0 0
461 1 29.385169907085633 -4.353243794811711 11.603844313945151 0 -1 0
462 1 29.430571208316604 -4.20585446199307 26.50032942055434 0 -1 0
469 1 3.2218314995766 -14.663435848704523 11.633314084458487 0 0 0
470 1 3.317955402153371 -14.744216542727152 26.493622607753114 0 0 0
477 1 12.994212321022651 -32.69338268507746 4.220986021166198 0 0 0
478 1 13.019679341278152 -32.68148312045688 19.074876266429364 0 0 0
486 1 14.985230314354812 -18.780931856675164 4.205784497032804 0 0 0
487 1 14.985148672951098 -18.779321879542014 19.068570248638288 0 0 0
495 1 17.003772034510387 -4.906902142077282 4.233931727904055 0 -1 0
496 1 17.005053091935952 -4.904820884971716 19.049643533783893 0 -1 0
504 1 26.043043121842793 -27.53037396515935 4.152514589872267 0 0 0
505 1 26.09772374032399 -27.407042869892557 19.0730531726996 0 0 0
513 1 28.063576146971172 -13.65885096744811 4.296406584553582 0 0 0
514 1 28.117757335657235 -13.550384587161506 19.040975132425295 0 0 0
522 1 37.16222367381669 -36.11074331658449 4.203048486166079 0 0 0
523 1 37.07158568592962 -36.21859681737509 19.05504205445981 0 0 0
531 1 3.948641489343923 -10.006722513677513 4.197540819217277 0 0 0
532 1 3.9435748413831044 -10.084247288078299 19.03938420315695 0 0 0
540 1 13.017362745443794 -32.70869280192422 11.667368240544327 0 0 0
541 1 13.02413967068588 -32.69640406152711 26.503404332547813 0 0 0
548 1 15.028637371529241 -18.784642455145693 11.618565009086774 0 0 0
549 1 15.03208165453103 -18.73936824404999 26.485034148347857 0 0 0
556 1 16.97968604274004 -4.814167132602126 11.641518026597769 0 -1 0
557 1 17.022314828219695 -4.84118538549486 26.50531725519791 0 -1 0
564 1 26.061985789377957 -27.49622114197456 11.647854895019112 0 0 0
565 1 26.037090491994658 -27.391330393549232 26.503533891108503 0 0 0
572 1 28.009117301110493 -13.55520530360365 11.613802273397736 0 0 0
573 1 28.025217457697323 -13.548291572270923 26.481251868368464 0 0 0
580 1 37.02016935576805 -36.17977904317765 11.646312299283657 0 0 0
581 1 37.09971237787314 -36.20360691190902 26.474360193171393 0 0 0
588 1 3.9139987482837713 -10.0371032482523 11.598437925145069 0 0 0
589 1 3.9684755248489427 -10.081192884270024 26.435400678380116 0 0 0
596 1 13.644949360346796 -28.00732284679976 4.234430062362662 0 0 0
597 1 13.705948739048072 -27.978717401492375 19.090838386247512 0 0 0
605 1 15.698637940320769 -14.196486691063765 4.2228084755885575 0 0 0
606 1 15.67643321846965 -14.120441508935201 19.06765624137703 0 0 0
614 1 17.673221072483425 -0.18607269215532796 4.246015068170911 0 -1 0
615 1 17.70009600172781 -0.24844100088090215 19.052630758568846 0 -1 0
623 1 26.701962976971007 -22.85416854718588 4.199839535535844 0 0 0
624 1 26.77266945997305 -22.80600029960927 19.100917143272447 0 0 0
632 1 28.697944654292552 -8.98546447600297 4.08935996260664 0 -1 0
633 1 28.771839036740165 -8.969476955746728 19.02568050940659 0 -1 0
641 1 37.82235952581022 -31.526639836799273 4.216335932389816 0 0 0
642 1 37.699149421660074 -31.553218439160588 19.04610380155316 0 0 0
650 1 4.720551623332132 -5.433738454116472 4.358088645468776 0 0 0
651 1 4.630545572860164 -5.438434528649637 19.063322633917114 0 0 0
659 1 13.695746386750908 -28.0046641756813 11.63909510865913 0 0 0
660 1 13.727344232584837 -28.039377122797823 26.52777331184867 0 0 0
667 1 15.67804025598273 -14.127416074506272 11.606033606260342 0 0 0
668 1 15.730926597021153 -14.093615764191497 26.46301222103139 0 0 0
675 1 17.730061605311732 -0.2434072782013743 11.668001587763806 0 -1 0
676 1 17.690189102742867 -0.27847221132890354 26.503319852757055 0 -1 0
683 1 26.682927205724326 -22.788755371598015 11.62917909212502 0 0 0
684 1 26.75733740218194 -22.828135117055478 26.53659110735011 0 0 0
691 1 28.730318384645773 -8.970538072740275 11.5749120175488 0 -1 0
692 1 28.710796731935336 -8.883914441279664 26.44867901074711 0 -1 0
699 1 37.74578181016035 -31.52402413779043 11.639592788130729 0 0 0
700 1 37.75310249354665 -31.546948899578272 26.493077188252183 0 0 0
707 1 4.662543658630793 -5.456541988480538 11.597141100613594 0 0 0
708 1 4.615534424416865 -5.404557023300185 26.490542065600795 0 0 0
715 1 8.974284321478622 -3.6961975913636778 4.285054503629803 0 0 0
716 1 9.004686926177236 -3.757071996951346 19.031505747093693 0 0 0
724 1 18.034788147675076 -26.335731286892326 4.215836806230529 0 0 0
725 1 17.978211978821292 -26.245487440589088 19.079532609512338 0 0 0
733 1 20.028762401892276 -12.405545950317208 4.156270808104448 0 0 0
734 1 19.993036037781824 -12.3999036290381 19.02185170934432 0 0 0
742 1 28.96433517440046 -34.992058578089654 4.213107443183308 0 0 0
743 1 29.08990553082609 -34.992411554955 19.02936723242364 0 0 0
751 1 31.048088107328688 -21.105611332065916 4.1840706598857995 0 0 0
752 1 31.042700437403347 -21.104857988392478 19.076194305282755 0 0 0
760 1 33.1096003471859 -7.220299710808117 4.175581184949838 0 -1 0
761 1 33.06955435328368 -7.200590709500069 19.047983817508737 0 -1 0
769 1 7.013519953887057 -17.6745332472314 4.300803598786496 0 0 0
770 1 6.96993727851685 -17.579763866484956 19.061087201801968 0 0 0
778 1 8.992611573339317 -3.717173577474675 11.603418363832018 0 0 0
779 1 9.008254053281522 -3.679694081267961 26.485084561632064 0 0 0
786 1 18.068565424909824 -26.236087349594968 11.649281265872556 0 0 0
787 1 18.011303888146227 -26.277681965917985 26.54995070641159 0 0 0
794 1 20.047090452854615 -12.395486348173524 11.55462089032949 0 0 0
795 1 20.009737678891135 -12.419923080981786 26.509511818397474 0 0 0
802 1 29.025393297217164 -35.06038294888486 11.662354812092335 0 0 0
803 1 29.076925264983288 -35.00925010966034 26.464968709955816 0 0 0
810 1 31.014309270456415 -21.094876741247983 11.648048189426932 0 0 0
811 1 31.031626762314453 -21.079920434061346 26.492581281392265 0 0 0
818 1 33.09932942656873 -7.2530208356577965 11.578460862845327 0 -1 0
819 1 33.05291781371056 -7.1604378803012345 26.46734414264667 0 -1 0
826 1 6.9406976597232735 -17.539753870682137 11.632007251915862 0 0 0
827 1 7.059880119131137 -17.62987045951628 26.49370505395934 0 0 0
834 1 16.675410172448377 -35.56000522490462 4.249087343785094 0 0 0
835 1 16.69011588770669 -35.64690319453164 19.03719436876829 0 0 0
843 1 18.61973160767901 -21.640130077907223 4.367680058586878 0 0 0
844 1 18.693471598532387 -21.593621933505215 19.053121046650425 0 0 0
852 1 20.648520290307 -7.772689610170701 4.17372952116232 0 0 0
853 1 20.638026643693596 -7.752884758525404 19.056640256346096 0 0 0
861 1 29.73896922793947 -30.41087070908761 4.168947060146376 0 0 0
862 1 29.778815594954658 -30.344516701449017 19.07532075596853 0 0 0
870 1 31.701345535705304 -16.451515594816286 4.168581254385199 0 0 0
871 1 31.66839859606527 -16.430668462827057 19.071664137990837 0 0 0
879 1 5.689677623538648 -26.8763595037673 4.211786605787163 0 0 0
880 1 5.560719531646115 -26.87854853904006 19.083770485428936 0 0 0
888 1 7.60812368165031 -12.94239716914003 4.181612907007871 0 0 0
889 1 7.6941799705987055 -12.950124884766254 19.09817013481477 0 0 0
897 1 16.69663277146908 -35.619454200671065 11.597422776570815 0 0 0
898 1 16.64260605958722 -35.52627526818193 26.525598627834185 0 0 0
905 1 18.701403752969362 -21.683263289302193 11.60640272958861 0 0 0
906 1 18.763525574520582 -21.64950771852742 26.521379271387318 0 0 0
913 1 20.683010672105116 -7.766628483990225 11.606355088725177 0 0 0
914 1 20.726875928090056 -7.778940462681636 26.4879506145637 0 0 0
921 1 29.711960240178662 -30.393194138810287 11.622847436410353 0 0 0
922 1 29.723623933940182 -30.371491405385 26.496927762764273 0 0 0
929 1 31.74045278673247 -16.409107797669797 11.645055748691863 0 0 0
930 1 31.726620492650046 -16.46126956041451 26.488445810628722 0 0 0
937 1 5.553219597466409 -26.87201435985096 11.67453025799506 0 0 0
938 1 5.6323531665968245 -26.882173190635832 26.511475164965347 0 0 0
945 1 7.616165196203608 -12.877209174777825 11.629642840870181 0 0 0
946 1 7.665124204287497 -13.02401258418007 26.491482730502113 0 0 0
953 1 17.318754275331024 -30.9647254961996 4.24429523292263 0 0 0
954 1 17.38027608128312 -30.954313667579527 19.05893979834771 0 0 0
962 1 19.245517244008816 -17.052466465726567 4.172030108880014 0 0 0
963 1 19.345042937587966 -17.058938034216208 19.083799558984545 0 0 0
971 1 21.35391589506163 -3.1650978648591845 4.200168661811205 0 -1 0
972 1 21.36313101611267 -3.123429583142091 19.05333551892578 0 -1 0
980 1 30.357644388367905 -25.787195384740887 4.277230391019364 0 0 0
981 1 30.381348138835193 -25.772258731647945 19.080809442773795 0 0 0
989 1 32.40980924155547 -11.75060173350247 4.199296304253036 0 0 0
990 1 32.34077739643776 -11.805691979047381 19.044799376504333 0 0 0
998 1 6.358994560791467 -22.294646701976244 4.18922204743061 0 0 0
999 1 6.274706126709196 -22.20264676947936 19.059385120859584 0 0 0
1007 1 8.2837973985846 -8.338017609748263 4.206069846991802 0 0 0
1008 1 8.36281395557996 -8.305063800450988 19.087755864383404 0 0 0
1016 1 17.370153462165828 -30.94537091215274 11.64610382684775 0 0 0
1017 1 17.416483113775577 -30.94130113488339 26.530578448409713 0 0 0
1024 1 19.3657640859947 -17.035460674271807 11.625112621746249 0 0 0
1025 1 19.426374956545953 -17.01814424648191 26.50396602582575 0 0 0
1032 1 21.34151614716824 -3.0968279968194636 11.653169636463295 0 -1 0
1033 1 21.3455008059142 -3.115732346445121 26.507380257885394 0 -1 0
1040 1 30.37445307404998 -25.731548139812006 11.633790855030673 0 0 0
1041 1 30.37214216847355 -25.728975913896274 26.499634746701826 0 0 0
1048 1 32.43869092650621 -11.806244879988245 11.629189182515665 0 0 0
1049 1 32.36100224180708 -11.78263871177704 26.487949431678647 0 0 0
1056 1 6.28185372063572 -22.21838679638649 11.651015383178757 0 0 0
1057 1 6.290396495513206 -22.1738735429439 26.508078669710955 0 0 0
1064 1 8.326298977309218 -8.363258538541125 11.609014092497445 0 0 0
1065 1 8.319438941313148 -8.335141241497215 26.4935981291119 0 0 0
1072 1 32.70738057411235 -0.0567003536152626 14.406674559814165 -1 0 0
1073 1 32.67595486889864 -0.011566622297799256 29.2922951729778 -1 0 0
1080 1 8.943052075621022 -22.60779854568244 14.430292995461024 0 0 0
1081 1 8.994000399231927 -22.635937963164988 29.241034604038422 0 0 0
1088 1 10.958425120274342 -8.769654624383698 14.364175694848509 0 0 0
1089 1 11.046183031563785 -8.631253669569688 29.29658528609082 0 0 0
1096 1 20.05225966659467 -31.34347369656605 14.37490328305202 0 0 0
1097 1 19.929529092437548 -31.30263457185005 29.166209896284133 0 0 0
1104 1 22.045790149547702 -17.414393479778628 14.393917598896811 0 0 0
1105 1 21.987514033000085 -17.373231635238472 29.162204976552662 0 0 0
1112 1 24.046373121388786 -3.379038732770759 14.376307310000362 0 -1 0
1113 1 24.136368844053095 -3.5160818202531914 29.32976966426915 0 -1 0
1120 1 33.1705340265896 -26.08320707901243 14.412264889710611 0 0 0
1121 1 33.02059717060589 -26.170878207464696 29.334916966267297 0 0 0
1128 1 32.742433588685294 0.009534034959955306 6.9367101551669474 -1 0 0
1129 1 32.61326258506653 -0.17376244765512183 21.85550726450413 -1 0 0
1137 1 8.948336321492057 -22.634591060112175 6.886301016155457 0 0 0
1138 1 9.030541787818889 -22.533033411581027 21.875432265161084 0 0 0
1146 1 10.775157225495978 -8.692445376980437 6.906082632779423 0 0 0
1147 1 11.118074394274148 -8.590685040182613 21.78233863008072 0 0 0
1155 1 20.032458818716904 -31.42262692866909 6.904535120322969 0 0 0
1156 1 20.014838616622047 -31.33168767357308 21.85451982571265 0 0 0
1164 1 22.08284891208037 -17.422180024636937 6.935374676458984 0 0 0
1165 1 21.99227132624207 -17.44194192694712 21.796708805321575 0 0 0
1173 1 24.006031086745157 -3.5641857384733555 6.997624465841186 0 -1 0
1174 1 24.108962329077055 -3.440528857323251 21.87005772020267 0 -1 0
1182 1 33.07146455769297 -26.145545526893446 6.952039581341019 0 0 0
1183 1 33.093889408573894 -26.163070127629094 21.746387579095572 0 0 0
1191 1 7.517457157977837 -31.912206171910462 14.468156965099624 0 0 0
1192 1 7.596529701322771 -31.998570464608346 29.344755068429503 0 0 0
1199 1 9.668171148058775 -17.94647681637345 14.416939472851917 0 0 0
1200 1 9.603386557774126 -17.996175246222585 29.15980629849043 0 0 0
1207 1 11.66032028954921 -4.10812323778444 14.379126351935088 0 0 0
1208 1 11.619855315502479 -4.103248581691517 29.32486082281782 0 0 0
1215 1 20.666238033995075 -26.561697250708548 14.355579706845077 0 0 0
1216 1 20.705393488733073 -26.673550701021007 29.11463025481302 0 0 0
1223 1 22.713153507297093 -12.766419486365017 14.371180571256616 0 0 0
1224 1 22.799254417820986 -12.77491291504132 29.207837743020722 0 0 0
1231 1 31.789277756241294 -35.53533399503534 14.338218507188325 0 0 0
1232 1 31.835182920202325 -35.409851130786535 29.3202782078969 0 0 0
1239 1 33.783243725268356 -21.479659137085644 14.486105993560372 0 0 0
1240 1 33.80646338708171 -21.502850983418508 29.20525641230771 0 0 0
1247 1 7.577702706046736 -31.89615613620285 6.909433981184931 0 0 0
1248 1 7.5779553134957025 -31.943551129599292 21.817470751076172 0 0 0
1256 1 9.63123676171047 -18.043359420153923 6.905391962677248 0 0 0
1257 1 9.783742177826056 -18.067968730988735 21.840027222034333 0 0 0
1265 1 11.631451684998364 -4.103279768171319 6.970251344051386 0 0 0
1266 1 11.700079441238856 -4.17771170060044 21.856673432195123 0 0 0
1274 1 20.70000841723557 -26.67392407456532 6.974631105723642 0 0 0
1275 1 20.68822952090933 -26.64658448764814 21.854119169734016 0 0 0
1283 1 22.641927299450952 -12.746958671005526 7.031600208928573 0 0 0
1284 1 22.713956374815364 -12.77146661484975 21.823214575614585 0 0 0
1292 1 31.737500660605 -35.40022523263525 6.982687475974046 0 0 0
1293 1 31.697296380377352 -35.45330159824617 21.907838298080307 0 0 0
1301 1 33.73456523263101 -21.475743289475645 6.932176763203431 0 0 0
1302 1 33.76201350286848 -21.416847520584984 21.860733956002168 0 0 0
1310 1 8.286608670507578 -27.2544821831815 14.433219188331504 0 0 0
1311 1 8.363123568279068 -27.21626879423616 29.296372218593763 0 0 0
1318 1 10.325514138961108 -13.265087173662803 14.360014797584203 0 0 0
1319 1 10.301744532918592 -13.41567797079082 29.201424040731872 0 0 0
1326 1 19.294894081528597 -36.01239816619409 14.428369962021867 0 0 0
1327 1 19.262313629662668 -35.87715144280259 29.248512513187332 0 0 0
1334 1 21.319644260723035 -22.076319840573444 14.363374484142042 0 0 0
1335 1 21.3263294249604 -22.05214002457266 29.165386589108188 0 0 0
1342 1 23.360181443003224 -8.144852096865563 14.36631069617695 0 0 0
1343 1 23.375864709550246 -8.144671767159252 29.3770044208155 0 0 0
1350 1 32.38975707522432 -30.76326445003295 14.412459408785622 0 0 0
1351 1 32.47426010259006 -30.75604595315077 29.33622913249667 0 0 0
1358 1 34.352558597865475 -16.814805571697992 14.390866482828091 0 0 0
1359 1 34.45792967531702 -16.856587110869654 29.222819250326218 0 0 0
1366 1 8.216301787516084 -27.251304453616708 6.921866934459295 0 0 0
1367 1 8.282734561488466 -27.26655523946382 21.813321768168336 0 0 0
1375 1 10.269787533358878 -13.254578414926385 6.9152725617916335 0 0 0
1376 1 10.440861392276922 -13.36886268937128 21.7931252891174 0 0 0
1384 1 19.275343328099776 -35.960853185434985 7.028729539096027 0 0 0
1385 1 19.361801337625483 -36.083002789900405 21.87642762669889 0 0 0
1393 1 21.274356511783903 -22.021861808945072 7.032194697477076 0 0 0
1394 1 21.33727312023341 -21.966501261033816 21.793755834490835 0 0 0
1402 1 23.311151196128925 -8.240528228320908 7.048306140827002 0 0 0
1403 1 23.418265521639515 -8.163500128188424 21.81763439088884 0 0 0
1411 1 32.34005178475668 -30.761731264866192 7.00993549143203 0 0 0
1412 1 32.45978539819842 -30.703822798508455 21.741009667010076 0 0 0
1420 1 34.399367643463016 -16.794956320152163 6.934249474032917 0 0 0
1421 1 34.40664386987946 -16.89329334725987 21.867604255086498 0 0 0
1429 1 3.6853877520569744 -2.910883370849021 14.43339430953405 0 0 0
1430 1 3.6110015417420542 -2.9022228028800114 29.266930947506914 0 0 0
1437 1 12.747436009440996 -25.45467220608426 14.460863754740071 0 0 0
1438 1 12.680363654761454 -25.531883310642016 29.24308495920711 0 0 0
1445 1 14.698238206868872 -11.584033144769059 14.394973826848783 0 0 0
1446 1 14.786604656604924 -11.594333052730448 29.19436043806907 0 0 0
1453 1 23.792177980251456 -34.28567893768976 14.351211024600257 0 0 0
1454 1 23.688321928742734 -34.20266607691088 29.240140396520633 0 0 0
1461 1 25.733117093373835 -20.366954153586533 14.331149098870462 0 0 0
1462 1 25.78540118379392 -20.327570129696397 29.203223229792318 0 0 0
1469 1 27.74331408739746 -6.444745384641703 14.355562012747937 0 -1 0
1470 1 27.664886160129814 -6.448907420503854 29.330887258538944 0 -1 0
1477 1 36.7136249027897 -29.00812679417526 14.417838411797804 0 0 0
1478 1 36.716471977245476 -29.07032649687292 29.347464307990062 0 0 0
1485 1 3.7617978702648536 -3.0443443307640337 6.982629213779099 0 0 0
1486 1 3.5546592803449917 -2.927144617763055 21.86651442652354 0 0 0
1494 1 12.691877203418201 -25.560170400205585 7.027898032936729 0 0 0
1495 1 12.759012407309061 -25.4797663778705 21.79393784473071 0 0 0
1503 1 14.686003377194275 -11.692751912493328 7.032028445710951 0 0 0
1504 1 14.642334792640344 -11.672742033992208 21.7816466417312 0 0 0
1512 1 23.744342294153103 -34.16081661857682 6.907674565140564 0 0 0
1513 1 23.7072283969122 -34.26635130391999 21.85052388226024 0 0 0
1521 1 25.695521321725504 -20.30818644263345 6.990616862967892 0 0 0
1522 1 25.804979703580596 -20.296762493818385 21.799801396536832 0 0 0
1530 1 27.766768400832845 -6.572464160190652 6.99694064947025 0 -1 0
1531 1 27.773942870333705 -6.450732470018689 21.862496169588844 0 -1 0
1539 1 36.80046325046624 -28.995999757115527 6.940001013006258 0 0 0
1540 1 36.65801476671984 -29.014394569588973 21.74069104717013 0 0 0
1548 1 11.366435449096883 -34.91716870850572 14.465204128851132 0 0 0
1549 1 11.369708598403445 -34.76071666827619 29.294138941884157 0 0 0
1556 1 13.393601219053767 -20.957717925023694 14.452174816965583 0 0 0
1557 1 13.355081752475755 -20.903556715433144 29.22424270480547 0 0 0
1564 1 15.35472670707114 -6.855443197900534 14.398681653457924 0 0 0
1565 1 15.281399988521958 -6.942252146250439 29.29620061924736 0 0 0
1572 1 24.477982142347052 -29.572517113209315 14.337481101499812 0 0 0
1573 1 24.378993429513812 -29.428839736245727 29.234759051050588 0 0 0
1580 1 26.40408632486552 -15.553251515247862 14.395062970347139 0 0 0
1581 1 26.354610764202935 -15.57544307269858 29.210560430417342 0 0 0
1588 1 28.25644929952464 -1.6901462601470882 14.387766525923764 0 -1 0
1589 1 28.438212031965502 -1.706322330498196 29.28727279695027 0 -1 0
1596 1 34.91052007395816 -12.200159336979102 14.334520070957678 -1 0 0
1597 1 35.132090570067156 -12.09603980359093 29.29667372822572 -1 0 0
1604 1 11.44301221129896 -34.82132442682564 6.950350541808779 0 0 0
1605 1 11.30491775092835 -34.85578729633929 21.82750700564535 0 0 0
1613 1 13.427256927182679 -20.85294631401871 6.976865642942835 0 0 0
1614 1 13.304136978015382 -20.712653904542332 21.887559574467772 0 0 0
1622 1 15.392485146839732 -7.006972734750981 6.939036289600173 0 0 0
1623 1 15.293639768112378 -7.06158788802907 21.79789385589749 0 0 0
1631 1 24.345353155802492 -29.642466846384117 6.927600931901866 0 0 0
1632 1 24.40869279502671 -29.56468884866146 21.854627150760017 0 0 0
1640 1 26.396400222659743 -15.785921650280205 6.893143025160834 0 0 0
1641 1 26.4971834827172 -15.61036895996904 21.831009322882498 0 0 0
1649 1 28.4152069457578 -1.7891944867389356 6.981195060299122 0 -1 0
1650 1 28.43860560536207 -1.7147068229457076 21.85805809664439 0 -1 0
1658 1 35.08388194442412 -12.035018100201242 6.942556986249681 -1 0 0
1659 1 35.09217209416586 -12.16231610267899 21.878990961719264 -1 0 0
1667 1 12.005384725364117 -30.171212591213866 14.445633657356098 0 0 0
1668 1 12.043661568085337 -30.25845650897387 29.296609403788622 0 0 0
1675 1 14.02614946580232 -16.24198041367282 14.410283381076963 0 0 0
1676 1 14.033967670833633 -16.249971246950363 29.214390878463217 0 0 0
1683 1 16.064600455957706 -2.5115894187863574 14.34767856391452 0 -1 0
1684 1 16.054181839843935 -2.355172481194103 29.212509654291047 0 -1 0
1691 1 25.019753986113795 -24.841674035827506 14.367224314742597 0 0 0
1692 1 25.10989759256014 -25.096064836292904 29.198521426378775 0 0 0
1699 1 27.039936335196238 -11.179201565842028 14.372113587868913 0 0 0
1700 1 26.973925794403442 -11.003653896885009 29.28335001823227 0 0 0
1707 1 36.045608852018226 -33.66395682256104 14.400497818539566 0 0 0
1708 1 36.08450720747235 -33.65203268335044 29.377549063873975 0 0 0
1715 1 2.9399878070682215 -7.6390372135773745 14.329475809467374 0 0 0
1716 1 2.9753793937888613 -7.590656121646649 29.290505193550487 0 0 0
1723 1 12.043422000126426 -30.109383760357844 7.052240015991478 0 0 0
1724 1 12.020967660490694 -30.14614837510787 21.845750757048084 0 0 0
1732 1 14.152813269159083 -16.296624929121126 7.02089211326596 0 0 0
1733 1 14.020242578507148 -16.2570019687934 21.83298787975072 0 0 0
1741 1 15.910656819553694 -2.341077873319712 7.027323836209591 0 -1 0
1742 1 15.94154803705976 -2.3819704711618996 21.878238460493048 0 -1 0
1750 1 25.04975283846408 -24.908359948231265 7.022998894162425 0 0 0
1751 1 25.143260025011276 -24.922599487878923 21.801463253454013 0 0 0
1759 1 27.015625355068114 -11.032856524681478 7.029653172557261 0 0 0
1760 1 27.22129589424008 -11.058888735436355 21.872796801829633 0 0 0
1768 1 36.15733660683783 -33.637131610383946 6.928514071472188 0 0 0
1769 1 36.06696690630424 -33.66943537905656 21.82222739331686 0 0 0
1777 1 3.0049491117638745 -7.654225491557831 6.998102412044059 0 0 0
1778 1 2.967437769649548 -7.644634569077674 21.85982934634178 0 0 0
1786 1 7.37044322061158 -5.788584146442808 14.42521374765446 0 0 0
1787 1 7.3549417158187165 -5.738145864322391 29.28846359996726 0 0 0
1794 1 16.3557875865654 -28.39167018508421 14.419405052676575 0 0 0
1795 1 16.38357103806297 -28.368615605642972 29.167773529901257 0 0 0
1802 1 18.422935146817817 -14.462845831926384 14.431075372934735 0 0 0
1803 1 18.449362142037735 -14.435136080531915 29.150543714829315 0 0 0
1810 1 20.36942311984211 -0.6264037916412093 14.24957812264941 0 -1 0
1811 1 20.34413706009891 -0.6780530753004967 29.214379558293476 0 -1 0
1818 1 29.36987254477044 -23.157899234519125 14.365180587738342 0 0 0
1819 1 29.360336866608964 -23.26933280591042 29.20381468657998 0 0 0